+ 0.1 0 1 tcp 40 ------- 1 0.0 4.0 0 0
- 0.1 0 1 tcp 40 ------- 1 0.0 4.0 0 0
r 0.11032 0 1 tcp 40 ------- 1 0.0 4.0 0 0
+ 0.11032 1 4 tcp 40 ------- 1 0.0 4.0 0 0
- 0.11032 1 4 tcp 40 ------- 1 0.0 4.0 0 0
r 0.12064 1 4 tcp 40 ------- 1 0.0 4.0 0 0
+ 0.12064 4 1 ack 40 ------- 1 4.0 0.0 0 1
- 0.12064 4 1 ack 40 ------- 1 4.0 0.0 0 1
r 0.13096 4 1 ack 40 ------- 1 4.0 0.0 0 1
+ 0.13096 1 0 ack 40 ------- 1 4.0 0.0 0 1
- 0.13096 1 0 ack 40 ------- 1 4.0 0.0 0 1
r 0.14128 1 0 ack 40 ------- 1 4.0 0.0 0 1
+ 0.14128 0 1 tcp 1040 ------- 1 0.0 4.0 1 2
- 0.14128 0 1 tcp 1040 ------- 1 0.0 4.0 1 2
+ 0.14128 0 1 tcp 1040 ------- 1 0.0 4.0 2 3
- 0.1496 0 1 tcp 1040 ------- 1 0.0 4.0 2 3
r 0.1596 0 1 tcp 1040 ------- 1 0.0 4.0 1 2
+ 0.1596 1 4 tcp 1040 ------- 1 0.0 4.0 1 2
- 0.1596 1 4 tcp 1040 ------- 1 0.0 4.0 1 2
r 0.16792 0 1 tcp 1040 ------- 1 0.0 4.0 2 3
+ 0.16792 1 4 tcp 1040 ------- 1 0.0 4.0 2 3
- 0.16792 1 4 tcp 1040 ------- 1 0.0 4.0 2 3
r 0.17792 1 4 tcp 1040 ------- 1 0.0 4.0 1 2
+ 0.17792 4 1 ack 40 ------- 1 4.0 0.0 1 4
- 0.17792 4 1 ack 40 ------- 1 4.0 0.0 1 4
r 0.18624 1 4 tcp 1040 ------- 1 0.0 4.0 2 3
+ 0.18624 4 1 ack 40 ------- 1 4.0 0.0 2 5
- 0.18624 4 1 ack 40 ------- 1 4.0 0.0 2 5
r 0.18824 4 1 ack 40 ------- 1 4.0 0.0 1 4
+ 0.18824 1 0 ack 40 ------- 1 4.0 0.0 1 4
- 0.18824 1 0 ack 40 ------- 1 4.0 0.0 1 4
r 0.19656 4 1 ack 40 ------- 1 4.0 0.0 2 5
+ 0.19656 1 0 ack 40 ------- 1 4.0 0.0 2 5
- 0.19656 1 0 ack 40 ------- 1 4.0 0.0 2 5
r 0.19856 1 0 ack 40 ------- 1 4.0 0.0 1 4
+ 0.19856 0 1 tcp 1040 ------- 1 0.0 4.0 3 6
- 0.19856 0 1 tcp 1040 ------- 1 0.0 4.0 3 6
+ 0.19856 0 1 tcp 1040 ------- 1 0.0 4.0 4 7
r 0.20688 1 0 ack 40 ------- 1 4.0 0.0 2 5
+ 0.20688 0 1 tcp 1040 ------- 1 0.0 4.0 5 8
+ 0.20688 0 1 tcp 1040 ------- 1 0.0 4.0 6 9
- 0.20688 0 1 tcp 1040 ------- 1 0.0 4.0 4 7
- 0.2152 0 1 tcp 1040 ------- 1 0.0 4.0 5 8
r 0.21688 0 1 tcp 1040 ------- 1 0.0 4.0 3 6
+ 0.21688 1 4 tcp 1040 ------- 1 0.0 4.0 3 6
- 0.21688 1 4 tcp 1040 ------- 1 0.0 4.0 3 6
- 0.22352 0 1 tcp 1040 ------- 1 0.0 4.0 6 9
r 0.2252 0 1 tcp 1040 ------- 1 0.0 4.0 4 7
+ 0.2252 1 4 tcp 1040 ------- 1 0.0 4.0 4 7
- 0.2252 1 4 tcp 1040 ------- 1 0.0 4.0 4 7
r 0.23352 0 1 tcp 1040 ------- 1 0.0 4.0 5 8
+ 0.23352 1 4 tcp 1040 ------- 1 0.0 4.0 5 8
- 0.23352 1 4 tcp 1040 ------- 1 0.0 4.0 5 8
r 0.2352 1 4 tcp 1040 ------- 1 0.0 4.0 3 6
+ 0.2352 4 1 ack 40 ------- 1 4.0 0.0 3 10
- 0.2352 4 1 ack 40 ------- 1 4.0 0.0 3 10
r 0.24184 0 1 tcp 1040 ------- 1 0.0 4.0 6 9
+ 0.24184 1 4 tcp 1040 ------- 1 0.0 4.0 6 9
- 0.24184 1 4 tcp 1040 ------- 1 0.0 4.0 6 9
r 0.24352 1 4 tcp 1040 ------- 1 0.0 4.0 4 7
+ 0.24352 4 1 ack 40 ------- 1 4.0 0.0 4 11
- 0.24352 4 1 ack 40 ------- 1 4.0 0.0 4 11
r 0.24552 4 1 ack 40 ------- 1 4.0 0.0 3 10
+ 0.24552 1 0 ack 40 ------- 1 4.0 0.0 3 10
- 0.24552 1 0 ack 40 ------- 1 4.0 0.0 3 10
r 0.25184 1 4 tcp 1040 ------- 1 0.0 4.0 5 8
+ 0.25184 4 1 ack 40 ------- 1 4.0 0.0 5 12
- 0.25184 4 1 ack 40 ------- 1 4.0 0.0 5 12
r 0.25384 4 1 ack 40 ------- 1 4.0 0.0 4 11
+ 0.25384 1 0 ack 40 ------- 1 4.0 0.0 4 11
- 0.25384 1 0 ack 40 ------- 1 4.0 0.0 4 11
r 0.25584 1 0 ack 40 ------- 1 4.0 0.0 3 10
+ 0.25584 0 1 tcp 1040 ------- 1 0.0 4.0 7 13
- 0.25584 0 1 tcp 1040 ------- 1 0.0 4.0 7 13
+ 0.25584 0 1 tcp 1040 ------- 1 0.0 4.0 8 14
r 0.26016 1 4 tcp 1040 ------- 1 0.0 4.0 6 9
+ 0.26016 4 1 ack 40 ------- 1 4.0 0.0 6 15
- 0.26016 4 1 ack 40 ------- 1 4.0 0.0 6 15
r 0.26216 4 1 ack 40 ------- 1 4.0 0.0 5 12
+ 0.26216 1 0 ack 40 ------- 1 4.0 0.0 5 12
- 0.26216 1 0 ack 40 ------- 1 4.0 0.0 5 12
r 0.26416 1 0 ack 40 ------- 1 4.0 0.0 4 11
+ 0.26416 0 1 tcp 1040 ------- 1 0.0 4.0 9 16
+ 0.26416 0 1 tcp 1040 ------- 1 0.0 4.0 10 17
- 0.26416 0 1 tcp 1040 ------- 1 0.0 4.0 8 14
r 0.27048 4 1 ack 40 ------- 1 4.0 0.0 6 15
+ 0.27048 1 0 ack 40 ------- 1 4.0 0.0 6 15
- 0.27048 1 0 ack 40 ------- 1 4.0 0.0 6 15
r 0.27248 1 0 ack 40 ------- 1 4.0 0.0 5 12
+ 0.27248 0 1 tcp 1040 ------- 1 0.0 4.0 11 18
+ 0.27248 0 1 tcp 1040 ------- 1 0.0 4.0 12 19
- 0.27248 0 1 tcp 1040 ------- 1 0.0 4.0 9 16
r 0.27416 0 1 tcp 1040 ------- 1 0.0 4.0 7 13
+ 0.27416 1 4 tcp 1040 ------- 1 0.0 4.0 7 13
- 0.27416 1 4 tcp 1040 ------- 1 0.0 4.0 7 13
r 0.2808 1 0 ack 40 ------- 1 4.0 0.0 6 15
+ 0.2808 0 1 tcp 1040 ------- 1 0.0 4.0 13 20
+ 0.2808 0 1 tcp 1040 ------- 1 0.0 4.0 14 21
- 0.2808 0 1 tcp 1040 ------- 1 0.0 4.0 10 17
r 0.28248 0 1 tcp 1040 ------- 1 0.0 4.0 8 14
+ 0.28248 1 4 tcp 1040 ------- 1 0.0 4.0 8 14
- 0.28248 1 4 tcp 1040 ------- 1 0.0 4.0 8 14
- 0.28912 0 1 tcp 1040 ------- 1 0.0 4.0 11 18
r 0.2908 0 1 tcp 1040 ------- 1 0.0 4.0 9 16
+ 0.2908 1 4 tcp 1040 ------- 1 0.0 4.0 9 16
- 0.2908 1 4 tcp 1040 ------- 1 0.0 4.0 9 16
r 0.29248 1 4 tcp 1040 ------- 1 0.0 4.0 7 13
+ 0.29248 4 1 ack 40 ------- 1 4.0 0.0 7 22
- 0.29248 4 1 ack 40 ------- 1 4.0 0.0 7 22
- 0.29744 0 1 tcp 1040 ------- 1 0.0 4.0 12 19
r 0.29912 0 1 tcp 1040 ------- 1 0.0 4.0 10 17
+ 0.29912 1 4 tcp 1040 ------- 1 0.0 4.0 10 17
- 0.29912 1 4 tcp 1040 ------- 1 0.0 4.0 10 17
r 0.3008 1 4 tcp 1040 ------- 1 0.0 4.0 8 14
+ 0.3008 4 1 ack 40 ------- 1 4.0 0.0 8 23
- 0.3008 4 1 ack 40 ------- 1 4.0 0.0 8 23
r 0.3028 4 1 ack 40 ------- 1 4.0 0.0 7 22
+ 0.3028 1 0 ack 40 ------- 1 4.0 0.0 7 22
- 0.3028 1 0 ack 40 ------- 1 4.0 0.0 7 22
- 0.30576 0 1 tcp 1040 ------- 1 0.0 4.0 13 20
r 0.30744 0 1 tcp 1040 ------- 1 0.0 4.0 11 18
+ 0.30744 1 4 tcp 1040 ------- 1 0.0 4.0 11 18
- 0.30744 1 4 tcp 1040 ------- 1 0.0 4.0 11 18
r 0.30912 1 4 tcp 1040 ------- 1 0.0 4.0 9 16
+ 0.30912 4 1 ack 40 ------- 1 4.0 0.0 9 24
- 0.30912 4 1 ack 40 ------- 1 4.0 0.0 9 24
r 0.31112 4 1 ack 40 ------- 1 4.0 0.0 8 23
+ 0.31112 1 0 ack 40 ------- 1 4.0 0.0 8 23
- 0.31112 1 0 ack 40 ------- 1 4.0 0.0 8 23
r 0.31312 1 0 ack 40 ------- 1 4.0 0.0 7 22
+ 0.31312 0 1 tcp 1040 ------- 1 0.0 4.0 15 25
+ 0.31312 0 1 tcp 1040 ------- 1 0.0 4.0 16 26
- 0.31408 0 1 tcp 1040 ------- 1 0.0 4.0 14 21
r 0.31576 0 1 tcp 1040 ------- 1 0.0 4.0 12 19
+ 0.31576 1 4 tcp 1040 ------- 1 0.0 4.0 12 19
- 0.31576 1 4 tcp 1040 ------- 1 0.0 4.0 12 19
r 0.31744 1 4 tcp 1040 ------- 1 0.0 4.0 10 17
+ 0.31744 4 1 ack 40 ------- 1 4.0 0.0 10 27
- 0.31744 4 1 ack 40 ------- 1 4.0 0.0 10 27
r 0.31944 4 1 ack 40 ------- 1 4.0 0.0 9 24
+ 0.31944 1 0 ack 40 ------- 1 4.0 0.0 9 24
- 0.31944 1 0 ack 40 ------- 1 4.0 0.0 9 24
r 0.32144 1 0 ack 40 ------- 1 4.0 0.0 8 23
+ 0.32144 0 1 tcp 1040 ------- 1 0.0 4.0 17 28
+ 0.32144 0 1 tcp 1040 ------- 1 0.0 4.0 18 29
- 0.3224 0 1 tcp 1040 ------- 1 0.0 4.0 15 25
r 0.32408 0 1 tcp 1040 ------- 1 0.0 4.0 13 20
+ 0.32408 1 4 tcp 1040 ------- 1 0.0 4.0 13 20
- 0.32408 1 4 tcp 1040 ------- 1 0.0 4.0 13 20
r 0.32576 1 4 tcp 1040 ------- 1 0.0 4.0 11 18
+ 0.32576 4 1 ack 40 ------- 1 4.0 0.0 11 30
- 0.32576 4 1 ack 40 ------- 1 4.0 0.0 11 30
r 0.32776 4 1 ack 40 ------- 1 4.0 0.0 10 27
+ 0.32776 1 0 ack 40 ------- 1 4.0 0.0 10 27
- 0.32776 1 0 ack 40 ------- 1 4.0 0.0 10 27
r 0.32976 1 0 ack 40 ------- 1 4.0 0.0 9 24
+ 0.32976 0 1 tcp 1040 ------- 1 0.0 4.0 19 31
+ 0.32976 0 1 tcp 1040 ------- 1 0.0 4.0 20 32
- 0.33072 0 1 tcp 1040 ------- 1 0.0 4.0 16 26
r 0.3324 0 1 tcp 1040 ------- 1 0.0 4.0 14 21
+ 0.3324 1 4 tcp 1040 ------- 1 0.0 4.0 14 21
- 0.3324 1 4 tcp 1040 ------- 1 0.0 4.0 14 21
r 0.33408 1 4 tcp 1040 ------- 1 0.0 4.0 12 19
+ 0.33408 4 1 ack 40 ------- 1 4.0 0.0 12 33
- 0.33408 4 1 ack 40 ------- 1 4.0 0.0 12 33
r 0.33608 4 1 ack 40 ------- 1 4.0 0.0 11 30
+ 0.33608 1 0 ack 40 ------- 1 4.0 0.0 11 30
- 0.33608 1 0 ack 40 ------- 1 4.0 0.0 11 30
r 0.33808 1 0 ack 40 ------- 1 4.0 0.0 10 27
+ 0.33808 0 1 tcp 1040 ------- 1 0.0 4.0 21 34
+ 0.33808 0 1 tcp 1040 ------- 1 0.0 4.0 22 35
- 0.33904 0 1 tcp 1040 ------- 1 0.0 4.0 17 28
r 0.34072 0 1 tcp 1040 ------- 1 0.0 4.0 15 25
+ 0.34072 1 4 tcp 1040 ------- 1 0.0 4.0 15 25
- 0.34072 1 4 tcp 1040 ------- 1 0.0 4.0 15 25
r 0.3424 1 4 tcp 1040 ------- 1 0.0 4.0 13 20
+ 0.3424 4 1 ack 40 ------- 1 4.0 0.0 13 36
- 0.3424 4 1 ack 40 ------- 1 4.0 0.0 13 36
r 0.3444 4 1 ack 40 ------- 1 4.0 0.0 12 33
+ 0.3444 1 0 ack 40 ------- 1 4.0 0.0 12 33
- 0.3444 1 0 ack 40 ------- 1 4.0 0.0 12 33
r 0.3464 1 0 ack 40 ------- 1 4.0 0.0 11 30
+ 0.3464 0 1 tcp 1040 ------- 1 0.0 4.0 23 37
+ 0.3464 0 1 tcp 1040 ------- 1 0.0 4.0 24 38
- 0.34736 0 1 tcp 1040 ------- 1 0.0 4.0 18 29
r 0.34904 0 1 tcp 1040 ------- 1 0.0 4.0 16 26
+ 0.34904 1 4 tcp 1040 ------- 1 0.0 4.0 16 26
- 0.34904 1 4 tcp 1040 ------- 1 0.0 4.0 16 26
r 0.35072 1 4 tcp 1040 ------- 1 0.0 4.0 14 21
+ 0.35072 4 1 ack 40 ------- 1 4.0 0.0 14 39
- 0.35072 4 1 ack 40 ------- 1 4.0 0.0 14 39
r 0.35272 4 1 ack 40 ------- 1 4.0 0.0 13 36
+ 0.35272 1 0 ack 40 ------- 1 4.0 0.0 13 36
- 0.35272 1 0 ack 40 ------- 1 4.0 0.0 13 36
r 0.35472 1 0 ack 40 ------- 1 4.0 0.0 12 33
+ 0.35472 0 1 tcp 1040 ------- 1 0.0 4.0 25 40
+ 0.35472 0 1 tcp 1040 ------- 1 0.0 4.0 26 41
- 0.35568 0 1 tcp 1040 ------- 1 0.0 4.0 19 31
r 0.35736 0 1 tcp 1040 ------- 1 0.0 4.0 17 28
+ 0.35736 1 4 tcp 1040 ------- 1 0.0 4.0 17 28
- 0.35736 1 4 tcp 1040 ------- 1 0.0 4.0 17 28
r 0.35904 1 4 tcp 1040 ------- 1 0.0 4.0 15 25
+ 0.35904 4 1 ack 40 ------- 1 4.0 0.0 15 42
- 0.35904 4 1 ack 40 ------- 1 4.0 0.0 15 42
r 0.36104 4 1 ack 40 ------- 1 4.0 0.0 14 39
+ 0.36104 1 0 ack 40 ------- 1 4.0 0.0 14 39
- 0.36104 1 0 ack 40 ------- 1 4.0 0.0 14 39
r 0.36304 1 0 ack 40 ------- 1 4.0 0.0 13 36
+ 0.36304 0 1 tcp 1040 ------- 1 0.0 4.0 27 43
+ 0.36304 0 1 tcp 1040 ------- 1 0.0 4.0 28 44
- 0.364 0 1 tcp 1040 ------- 1 0.0 4.0 20 32
r 0.36568 0 1 tcp 1040 ------- 1 0.0 4.0 18 29
+ 0.36568 1 4 tcp 1040 ------- 1 0.0 4.0 18 29
- 0.36568 1 4 tcp 1040 ------- 1 0.0 4.0 18 29
r 0.36736 1 4 tcp 1040 ------- 1 0.0 4.0 16 26
+ 0.36736 4 1 ack 40 ------- 1 4.0 0.0 16 45
- 0.36736 4 1 ack 40 ------- 1 4.0 0.0 16 45
r 0.36936 4 1 ack 40 ------- 1 4.0 0.0 15 42
+ 0.36936 1 0 ack 40 ------- 1 4.0 0.0 15 42
- 0.36936 1 0 ack 40 ------- 1 4.0 0.0 15 42
r 0.37136 1 0 ack 40 ------- 1 4.0 0.0 14 39
+ 0.37136 0 1 tcp 1040 ------- 1 0.0 4.0 29 46
+ 0.37136 0 1 tcp 1040 ------- 1 0.0 4.0 30 47
- 0.37232 0 1 tcp 1040 ------- 1 0.0 4.0 21 34
r 0.374 0 1 tcp 1040 ------- 1 0.0 4.0 19 31
+ 0.374 1 4 tcp 1040 ------- 1 0.0 4.0 19 31
- 0.374 1 4 tcp 1040 ------- 1 0.0 4.0 19 31
r 0.37568 1 4 tcp 1040 ------- 1 0.0 4.0 17 28
+ 0.37568 4 1 ack 40 ------- 1 4.0 0.0 17 48
- 0.37568 4 1 ack 40 ------- 1 4.0 0.0 17 48
r 0.37768 4 1 ack 40 ------- 1 4.0 0.0 16 45
+ 0.37768 1 0 ack 40 ------- 1 4.0 0.0 16 45
- 0.37768 1 0 ack 40 ------- 1 4.0 0.0 16 45
r 0.37968 1 0 ack 40 ------- 1 4.0 0.0 15 42
+ 0.37968 0 1 tcp 1040 ------- 1 0.0 4.0 31 49
+ 0.37968 0 1 tcp 1040 ------- 1 0.0 4.0 32 50
- 0.38064 0 1 tcp 1040 ------- 1 0.0 4.0 22 35
r 0.38232 0 1 tcp 1040 ------- 1 0.0 4.0 20 32
+ 0.38232 1 4 tcp 1040 ------- 1 0.0 4.0 20 32
- 0.38232 1 4 tcp 1040 ------- 1 0.0 4.0 20 32
r 0.384 1 4 tcp 1040 ------- 1 0.0 4.0 18 29
+ 0.384 4 1 ack 40 ------- 1 4.0 0.0 18 51
- 0.384 4 1 ack 40 ------- 1 4.0 0.0 18 51
r 0.386 4 1 ack 40 ------- 1 4.0 0.0 17 48
+ 0.386 1 0 ack 40 ------- 1 4.0 0.0 17 48
- 0.386 1 0 ack 40 ------- 1 4.0 0.0 17 48
r 0.388 1 0 ack 40 ------- 1 4.0 0.0 16 45
+ 0.388 0 1 tcp 1040 ------- 1 0.0 4.0 33 52
+ 0.388 0 1 tcp 1040 ------- 1 0.0 4.0 34 53
- 0.38896 0 1 tcp 1040 ------- 1 0.0 4.0 23 37
r 0.39064 0 1 tcp 1040 ------- 1 0.0 4.0 21 34
+ 0.39064 1 4 tcp 1040 ------- 1 0.0 4.0 21 34
- 0.39064 1 4 tcp 1040 ------- 1 0.0 4.0 21 34
r 0.39232 1 4 tcp 1040 ------- 1 0.0 4.0 19 31
+ 0.39232 4 1 ack 40 ------- 1 4.0 0.0 19 54
- 0.39232 4 1 ack 40 ------- 1 4.0 0.0 19 54
r 0.39432 4 1 ack 40 ------- 1 4.0 0.0 18 51
+ 0.39432 1 0 ack 40 ------- 1 4.0 0.0 18 51
- 0.39432 1 0 ack 40 ------- 1 4.0 0.0 18 51
r 0.39632 1 0 ack 40 ------- 1 4.0 0.0 17 48
+ 0.39632 0 1 tcp 1040 ------- 1 0.0 4.0 35 55
+ 0.39632 0 1 tcp 1040 ------- 1 0.0 4.0 36 56
- 0.39728 0 1 tcp 1040 ------- 1 0.0 4.0 24 38
r 0.39896 0 1 tcp 1040 ------- 1 0.0 4.0 22 35
+ 0.39896 1 4 tcp 1040 ------- 1 0.0 4.0 22 35
- 0.39896 1 4 tcp 1040 ------- 1 0.0 4.0 22 35
r 0.40064 1 4 tcp 1040 ------- 1 0.0 4.0 20 32
+ 0.40064 4 1 ack 40 ------- 1 4.0 0.0 20 57
- 0.40064 4 1 ack 40 ------- 1 4.0 0.0 20 57
r 0.40264 4 1 ack 40 ------- 1 4.0 0.0 19 54
+ 0.40264 1 0 ack 40 ------- 1 4.0 0.0 19 54
- 0.40264 1 0 ack 40 ------- 1 4.0 0.0 19 54
r 0.40464 1 0 ack 40 ------- 1 4.0 0.0 18 51
+ 0.40464 0 1 tcp 1040 ------- 1 0.0 4.0 37 58
+ 0.40464 0 1 tcp 1040 ------- 1 0.0 4.0 38 59
- 0.4056 0 1 tcp 1040 ------- 1 0.0 4.0 25 40
r 0.40728 0 1 tcp 1040 ------- 1 0.0 4.0 23 37
+ 0.40728 1 4 tcp 1040 ------- 1 0.0 4.0 23 37
- 0.40728 1 4 tcp 1040 ------- 1 0.0 4.0 23 37
r 0.40896 1 4 tcp 1040 ------- 1 0.0 4.0 21 34
+ 0.40896 4 1 ack 40 ------- 1 4.0 0.0 21 60
- 0.40896 4 1 ack 40 ------- 1 4.0 0.0 21 60
r 0.41096 4 1 ack 40 ------- 1 4.0 0.0 20 57
+ 0.41096 1 0 ack 40 ------- 1 4.0 0.0 20 57
- 0.41096 1 0 ack 40 ------- 1 4.0 0.0 20 57
r 0.41296 1 0 ack 40 ------- 1 4.0 0.0 19 54
+ 0.41296 0 1 tcp 1040 ------- 1 0.0 4.0 39 61
- 0.41392 0 1 tcp 1040 ------- 1 0.0 4.0 26 41
r 0.4156 0 1 tcp 1040 ------- 1 0.0 4.0 24 38
+ 0.4156 1 4 tcp 1040 ------- 1 0.0 4.0 24 38
- 0.4156 1 4 tcp 1040 ------- 1 0.0 4.0 24 38
r 0.41728 1 4 tcp 1040 ------- 1 0.0 4.0 22 35
+ 0.41728 4 1 ack 40 ------- 1 4.0 0.0 22 62
- 0.41728 4 1 ack 40 ------- 1 4.0 0.0 22 62
r 0.41928 4 1 ack 40 ------- 1 4.0 0.0 21 60
+ 0.41928 1 0 ack 40 ------- 1 4.0 0.0 21 60
- 0.41928 1 0 ack 40 ------- 1 4.0 0.0 21 60
r 0.42128 1 0 ack 40 ------- 1 4.0 0.0 20 57
+ 0.42128 0 1 tcp 1040 ------- 1 0.0 4.0 40 63
- 0.42224 0 1 tcp 1040 ------- 1 0.0 4.0 27 43
r 0.42392 0 1 tcp 1040 ------- 1 0.0 4.0 25 40
+ 0.42392 1 4 tcp 1040 ------- 1 0.0 4.0 25 40
- 0.42392 1 4 tcp 1040 ------- 1 0.0 4.0 25 40
r 0.4256 1 4 tcp 1040 ------- 1 0.0 4.0 23 37
+ 0.4256 4 1 ack 40 ------- 1 4.0 0.0 23 64
- 0.4256 4 1 ack 40 ------- 1 4.0 0.0 23 64
r 0.4276 4 1 ack 40 ------- 1 4.0 0.0 22 62
+ 0.4276 1 0 ack 40 ------- 1 4.0 0.0 22 62
- 0.4276 1 0 ack 40 ------- 1 4.0 0.0 22 62
r 0.4296 1 0 ack 40 ------- 1 4.0 0.0 21 60
+ 0.4296 0 1 tcp 1040 ------- 1 0.0 4.0 41 65
- 0.43056 0 1 tcp 1040 ------- 1 0.0 4.0 28 44
r 0.43224 0 1 tcp 1040 ------- 1 0.0 4.0 26 41
+ 0.43224 1 4 tcp 1040 ------- 1 0.0 4.0 26 41
- 0.43224 1 4 tcp 1040 ------- 1 0.0 4.0 26 41
r 0.43392 1 4 tcp 1040 ------- 1 0.0 4.0 24 38
+ 0.43392 4 1 ack 40 ------- 1 4.0 0.0 24 66
- 0.43392 4 1 ack 40 ------- 1 4.0 0.0 24 66
r 0.43592 4 1 ack 40 ------- 1 4.0 0.0 23 64
+ 0.43592 1 0 ack 40 ------- 1 4.0 0.0 23 64
- 0.43592 1 0 ack 40 ------- 1 4.0 0.0 23 64
r 0.43792 1 0 ack 40 ------- 1 4.0 0.0 22 62
+ 0.43792 0 1 tcp 1040 ------- 1 0.0 4.0 42 67
- 0.43888 0 1 tcp 1040 ------- 1 0.0 4.0 29 46
r 0.44056 0 1 tcp 1040 ------- 1 0.0 4.0 27 43
+ 0.44056 1 4 tcp 1040 ------- 1 0.0 4.0 27 43
- 0.44056 1 4 tcp 1040 ------- 1 0.0 4.0 27 43
r 0.44224 1 4 tcp 1040 ------- 1 0.0 4.0 25 40
+ 0.44224 4 1 ack 40 ------- 1 4.0 0.0 25 68
- 0.44224 4 1 ack 40 ------- 1 4.0 0.0 25 68
r 0.44424 4 1 ack 40 ------- 1 4.0 0.0 24 66
+ 0.44424 1 0 ack 40 ------- 1 4.0 0.0 24 66
- 0.44424 1 0 ack 40 ------- 1 4.0 0.0 24 66
r 0.44624 1 0 ack 40 ------- 1 4.0 0.0 23 64
+ 0.44624 0 1 tcp 1040 ------- 1 0.0 4.0 43 69
- 0.4472 0 1 tcp 1040 ------- 1 0.0 4.0 30 47
r 0.44888 0 1 tcp 1040 ------- 1 0.0 4.0 28 44
+ 0.44888 1 4 tcp 1040 ------- 1 0.0 4.0 28 44
- 0.44888 1 4 tcp 1040 ------- 1 0.0 4.0 28 44
r 0.45056 1 4 tcp 1040 ------- 1 0.0 4.0 26 41
+ 0.45056 4 1 ack 40 ------- 1 4.0 0.0 26 70
- 0.45056 4 1 ack 40 ------- 1 4.0 0.0 26 70
r 0.45256 4 1 ack 40 ------- 1 4.0 0.0 25 68
+ 0.45256 1 0 ack 40 ------- 1 4.0 0.0 25 68
- 0.45256 1 0 ack 40 ------- 1 4.0 0.0 25 68
r 0.45456 1 0 ack 40 ------- 1 4.0 0.0 24 66
+ 0.45456 0 1 tcp 1040 ------- 1 0.0 4.0 44 71
- 0.45552 0 1 tcp 1040 ------- 1 0.0 4.0 31 49
r 0.4572 0 1 tcp 1040 ------- 1 0.0 4.0 29 46
+ 0.4572 1 4 tcp 1040 ------- 1 0.0 4.0 29 46
- 0.4572 1 4 tcp 1040 ------- 1 0.0 4.0 29 46
r 0.45888 1 4 tcp 1040 ------- 1 0.0 4.0 27 43
+ 0.45888 4 1 ack 40 ------- 1 4.0 0.0 27 72
- 0.45888 4 1 ack 40 ------- 1 4.0 0.0 27 72
r 0.46088 4 1 ack 40 ------- 1 4.0 0.0 26 70
+ 0.46088 1 0 ack 40 ------- 1 4.0 0.0 26 70
- 0.46088 1 0 ack 40 ------- 1 4.0 0.0 26 70
r 0.46288 1 0 ack 40 ------- 1 4.0 0.0 25 68
+ 0.46288 0 1 tcp 1040 ------- 1 0.0 4.0 45 73
- 0.46384 0 1 tcp 1040 ------- 1 0.0 4.0 32 50
r 0.46552 0 1 tcp 1040 ------- 1 0.0 4.0 30 47
+ 0.46552 1 4 tcp 1040 ------- 1 0.0 4.0 30 47
- 0.46552 1 4 tcp 1040 ------- 1 0.0 4.0 30 47
r 0.4672 1 4 tcp 1040 ------- 1 0.0 4.0 28 44
+ 0.4672 4 1 ack 40 ------- 1 4.0 0.0 28 74
- 0.4672 4 1 ack 40 ------- 1 4.0 0.0 28 74
r 0.4692 4 1 ack 40 ------- 1 4.0 0.0 27 72
+ 0.4692 1 0 ack 40 ------- 1 4.0 0.0 27 72
- 0.4692 1 0 ack 40 ------- 1 4.0 0.0 27 72
r 0.4712 1 0 ack 40 ------- 1 4.0 0.0 26 70
+ 0.4712 0 1 tcp 1040 ------- 1 0.0 4.0 46 75
- 0.47216 0 1 tcp 1040 ------- 1 0.0 4.0 33 52
r 0.47384 0 1 tcp 1040 ------- 1 0.0 4.0 31 49
+ 0.47384 1 4 tcp 1040 ------- 1 0.0 4.0 31 49
- 0.47384 1 4 tcp 1040 ------- 1 0.0 4.0 31 49
r 0.47552 1 4 tcp 1040 ------- 1 0.0 4.0 29 46
+ 0.47552 4 1 ack 40 ------- 1 4.0 0.0 29 76
- 0.47552 4 1 ack 40 ------- 1 4.0 0.0 29 76
r 0.47752 4 1 ack 40 ------- 1 4.0 0.0 28 74
+ 0.47752 1 0 ack 40 ------- 1 4.0 0.0 28 74
- 0.47752 1 0 ack 40 ------- 1 4.0 0.0 28 74
r 0.47952 1 0 ack 40 ------- 1 4.0 0.0 27 72
+ 0.47952 0 1 tcp 1040 ------- 1 0.0 4.0 47 77
- 0.48048 0 1 tcp 1040 ------- 1 0.0 4.0 34 53
r 0.48216 0 1 tcp 1040 ------- 1 0.0 4.0 32 50
+ 0.48216 1 4 tcp 1040 ------- 1 0.0 4.0 32 50
- 0.48216 1 4 tcp 1040 ------- 1 0.0 4.0 32 50
r 0.48384 1 4 tcp 1040 ------- 1 0.0 4.0 30 47
+ 0.48384 4 1 ack 40 ------- 1 4.0 0.0 30 78
- 0.48384 4 1 ack 40 ------- 1 4.0 0.0 30 78
r 0.48584 4 1 ack 40 ------- 1 4.0 0.0 29 76
+ 0.48584 1 0 ack 40 ------- 1 4.0 0.0 29 76
- 0.48584 1 0 ack 40 ------- 1 4.0 0.0 29 76
r 0.48784 1 0 ack 40 ------- 1 4.0 0.0 28 74
+ 0.48784 0 1 tcp 1040 ------- 1 0.0 4.0 48 79
- 0.4888 0 1 tcp 1040 ------- 1 0.0 4.0 35 55
r 0.49048 0 1 tcp 1040 ------- 1 0.0 4.0 33 52
+ 0.49048 1 4 tcp 1040 ------- 1 0.0 4.0 33 52
- 0.49048 1 4 tcp 1040 ------- 1 0.0 4.0 33 52
r 0.49216 1 4 tcp 1040 ------- 1 0.0 4.0 31 49
+ 0.49216 4 1 ack 40 ------- 1 4.0 0.0 31 80
- 0.49216 4 1 ack 40 ------- 1 4.0 0.0 31 80
r 0.49416 4 1 ack 40 ------- 1 4.0 0.0 30 78
+ 0.49416 1 0 ack 40 ------- 1 4.0 0.0 30 78
- 0.49416 1 0 ack 40 ------- 1 4.0 0.0 30 78
r 0.49616 1 0 ack 40 ------- 1 4.0 0.0 29 76
+ 0.49616 0 1 tcp 1040 ------- 1 0.0 4.0 49 81
- 0.49712 0 1 tcp 1040 ------- 1 0.0 4.0 36 56
r 0.4988 0 1 tcp 1040 ------- 1 0.0 4.0 34 53
+ 0.4988 1 4 tcp 1040 ------- 1 0.0 4.0 34 53
- 0.4988 1 4 tcp 1040 ------- 1 0.0 4.0 34 53
r 0.50048 1 4 tcp 1040 ------- 1 0.0 4.0 32 50
+ 0.50048 4 1 ack 40 ------- 1 4.0 0.0 32 82
- 0.50048 4 1 ack 40 ------- 1 4.0 0.0 32 82
r 0.50248 4 1 ack 40 ------- 1 4.0 0.0 31 80
+ 0.50248 1 0 ack 40 ------- 1 4.0 0.0 31 80
- 0.50248 1 0 ack 40 ------- 1 4.0 0.0 31 80
r 0.50448 1 0 ack 40 ------- 1 4.0 0.0 30 78
+ 0.50448 0 1 tcp 1040 ------- 1 0.0 4.0 50 83
- 0.50544 0 1 tcp 1040 ------- 1 0.0 4.0 37 58
r 0.50712 0 1 tcp 1040 ------- 1 0.0 4.0 35 55
+ 0.50712 1 4 tcp 1040 ------- 1 0.0 4.0 35 55
- 0.50712 1 4 tcp 1040 ------- 1 0.0 4.0 35 55
r 0.5088 1 4 tcp 1040 ------- 1 0.0 4.0 33 52
+ 0.5088 4 1 ack 40 ------- 1 4.0 0.0 33 84
- 0.5088 4 1 ack 40 ------- 1 4.0 0.0 33 84
r 0.5108 4 1 ack 40 ------- 1 4.0 0.0 32 82
+ 0.5108 1 0 ack 40 ------- 1 4.0 0.0 32 82
- 0.5108 1 0 ack 40 ------- 1 4.0 0.0 32 82
r 0.5128 1 0 ack 40 ------- 1 4.0 0.0 31 80
+ 0.5128 0 1 tcp 1040 ------- 1 0.0 4.0 51 85
- 0.51376 0 1 tcp 1040 ------- 1 0.0 4.0 38 59
r 0.51544 0 1 tcp 1040 ------- 1 0.0 4.0 36 56
+ 0.51544 1 4 tcp 1040 ------- 1 0.0 4.0 36 56
- 0.51544 1 4 tcp 1040 ------- 1 0.0 4.0 36 56
r 0.51712 1 4 tcp 1040 ------- 1 0.0 4.0 34 53
+ 0.51712 4 1 ack 40 ------- 1 4.0 0.0 34 86
- 0.51712 4 1 ack 40 ------- 1 4.0 0.0 34 86
r 0.51912 4 1 ack 40 ------- 1 4.0 0.0 33 84
+ 0.51912 1 0 ack 40 ------- 1 4.0 0.0 33 84
- 0.51912 1 0 ack 40 ------- 1 4.0 0.0 33 84
r 0.52112 1 0 ack 40 ------- 1 4.0 0.0 32 82
+ 0.52112 0 1 tcp 1040 ------- 1 0.0 4.0 52 87
- 0.52208 0 1 tcp 1040 ------- 1 0.0 4.0 39 61
r 0.52376 0 1 tcp 1040 ------- 1 0.0 4.0 37 58
+ 0.52376 1 4 tcp 1040 ------- 1 0.0 4.0 37 58
- 0.52376 1 4 tcp 1040 ------- 1 0.0 4.0 37 58
r 0.52544 1 4 tcp 1040 ------- 1 0.0 4.0 35 55
+ 0.52544 4 1 ack 40 ------- 1 4.0 0.0 35 88
- 0.52544 4 1 ack 40 ------- 1 4.0 0.0 35 88
r 0.52744 4 1 ack 40 ------- 1 4.0 0.0 34 86
+ 0.52744 1 0 ack 40 ------- 1 4.0 0.0 34 86
- 0.52744 1 0 ack 40 ------- 1 4.0 0.0 34 86
r 0.52944 1 0 ack 40 ------- 1 4.0 0.0 33 84
+ 0.52944 0 1 tcp 1040 ------- 1 0.0 4.0 53 89
- 0.5304 0 1 tcp 1040 ------- 1 0.0 4.0 40 63
r 0.53208 0 1 tcp 1040 ------- 1 0.0 4.0 38 59
+ 0.53208 1 4 tcp 1040 ------- 1 0.0 4.0 38 59
- 0.53208 1 4 tcp 1040 ------- 1 0.0 4.0 38 59
r 0.53376 1 4 tcp 1040 ------- 1 0.0 4.0 36 56
+ 0.53376 4 1 ack 40 ------- 1 4.0 0.0 36 90
- 0.53376 4 1 ack 40 ------- 1 4.0 0.0 36 90
r 0.53576 4 1 ack 40 ------- 1 4.0 0.0 35 88
+ 0.53576 1 0 ack 40 ------- 1 4.0 0.0 35 88
- 0.53576 1 0 ack 40 ------- 1 4.0 0.0 35 88
r 0.53776 1 0 ack 40 ------- 1 4.0 0.0 34 86
+ 0.53776 0 1 tcp 1040 ------- 1 0.0 4.0 54 91
- 0.53872 0 1 tcp 1040 ------- 1 0.0 4.0 41 65
r 0.5404 0 1 tcp 1040 ------- 1 0.0 4.0 39 61
+ 0.5404 1 4 tcp 1040 ------- 1 0.0 4.0 39 61
- 0.5404 1 4 tcp 1040 ------- 1 0.0 4.0 39 61
r 0.54208 1 4 tcp 1040 ------- 1 0.0 4.0 37 58
+ 0.54208 4 1 ack 40 ------- 1 4.0 0.0 37 92
- 0.54208 4 1 ack 40 ------- 1 4.0 0.0 37 92
r 0.54408 4 1 ack 40 ------- 1 4.0 0.0 36 90
+ 0.54408 1 0 ack 40 ------- 1 4.0 0.0 36 90
- 0.54408 1 0 ack 40 ------- 1 4.0 0.0 36 90
r 0.54608 1 0 ack 40 ------- 1 4.0 0.0 35 88
+ 0.54608 0 1 tcp 1040 ------- 1 0.0 4.0 55 93
- 0.54704 0 1 tcp 1040 ------- 1 0.0 4.0 42 67
r 0.54872 0 1 tcp 1040 ------- 1 0.0 4.0 40 63
+ 0.54872 1 4 tcp 1040 ------- 1 0.0 4.0 40 63
- 0.54872 1 4 tcp 1040 ------- 1 0.0 4.0 40 63
r 0.5504 1 4 tcp 1040 ------- 1 0.0 4.0 38 59
+ 0.5504 4 1 ack 40 ------- 1 4.0 0.0 38 94
- 0.5504 4 1 ack 40 ------- 1 4.0 0.0 38 94
r 0.5524 4 1 ack 40 ------- 1 4.0 0.0 37 92
+ 0.5524 1 0 ack 40 ------- 1 4.0 0.0 37 92
- 0.5524 1 0 ack 40 ------- 1 4.0 0.0 37 92
r 0.5544 1 0 ack 40 ------- 1 4.0 0.0 36 90
+ 0.5544 0 1 tcp 1040 ------- 1 0.0 4.0 56 95
- 0.55536 0 1 tcp 1040 ------- 1 0.0 4.0 43 69
r 0.55704 0 1 tcp 1040 ------- 1 0.0 4.0 41 65
+ 0.55704 1 4 tcp 1040 ------- 1 0.0 4.0 41 65
- 0.55704 1 4 tcp 1040 ------- 1 0.0 4.0 41 65
r 0.55872 1 4 tcp 1040 ------- 1 0.0 4.0 39 61
+ 0.55872 4 1 ack 40 ------- 1 4.0 0.0 39 96
- 0.55872 4 1 ack 40 ------- 1 4.0 0.0 39 96
r 0.56072 4 1 ack 40 ------- 1 4.0 0.0 38 94
+ 0.56072 1 0 ack 40 ------- 1 4.0 0.0 38 94
- 0.56072 1 0 ack 40 ------- 1 4.0 0.0 38 94
r 0.56272 1 0 ack 40 ------- 1 4.0 0.0 37 92
+ 0.56272 0 1 tcp 1040 ------- 1 0.0 4.0 57 97
- 0.56368 0 1 tcp 1040 ------- 1 0.0 4.0 44 71
r 0.56536 0 1 tcp 1040 ------- 1 0.0 4.0 42 67
+ 0.56536 1 4 tcp 1040 ------- 1 0.0 4.0 42 67
- 0.56536 1 4 tcp 1040 ------- 1 0.0 4.0 42 67
r 0.56704 1 4 tcp 1040 ------- 1 0.0 4.0 40 63
+ 0.56704 4 1 ack 40 ------- 1 4.0 0.0 40 98
- 0.56704 4 1 ack 40 ------- 1 4.0 0.0 40 98
r 0.56904 4 1 ack 40 ------- 1 4.0 0.0 39 96
+ 0.56904 1 0 ack 40 ------- 1 4.0 0.0 39 96
- 0.56904 1 0 ack 40 ------- 1 4.0 0.0 39 96
r 0.57104 1 0 ack 40 ------- 1 4.0 0.0 38 94
+ 0.57104 0 1 tcp 1040 ------- 1 0.0 4.0 58 99
- 0.572 0 1 tcp 1040 ------- 1 0.0 4.0 45 73
r 0.57368 0 1 tcp 1040 ------- 1 0.0 4.0 43 69
+ 0.57368 1 4 tcp 1040 ------- 1 0.0 4.0 43 69
- 0.57368 1 4 tcp 1040 ------- 1 0.0 4.0 43 69
r 0.57536 1 4 tcp 1040 ------- 1 0.0 4.0 41 65
+ 0.57536 4 1 ack 40 ------- 1 4.0 0.0 41 100
- 0.57536 4 1 ack 40 ------- 1 4.0 0.0 41 100
r 0.57736 4 1 ack 40 ------- 1 4.0 0.0 40 98
+ 0.57736 1 0 ack 40 ------- 1 4.0 0.0 40 98
- 0.57736 1 0 ack 40 ------- 1 4.0 0.0 40 98
r 0.57936 1 0 ack 40 ------- 1 4.0 0.0 39 96
+ 0.57936 0 1 tcp 1040 ------- 1 0.0 4.0 59 101
- 0.58032 0 1 tcp 1040 ------- 1 0.0 4.0 46 75
r 0.582 0 1 tcp 1040 ------- 1 0.0 4.0 44 71
+ 0.582 1 4 tcp 1040 ------- 1 0.0 4.0 44 71
- 0.582 1 4 tcp 1040 ------- 1 0.0 4.0 44 71
r 0.58368 1 4 tcp 1040 ------- 1 0.0 4.0 42 67
+ 0.58368 4 1 ack 40 ------- 1 4.0 0.0 42 102
- 0.58368 4 1 ack 40 ------- 1 4.0 0.0 42 102
r 0.58568 4 1 ack 40 ------- 1 4.0 0.0 41 100
+ 0.58568 1 0 ack 40 ------- 1 4.0 0.0 41 100
- 0.58568 1 0 ack 40 ------- 1 4.0 0.0 41 100
r 0.58768 1 0 ack 40 ------- 1 4.0 0.0 40 98
+ 0.58768 0 1 tcp 1040 ------- 1 0.0 4.0 60 103
- 0.58864 0 1 tcp 1040 ------- 1 0.0 4.0 47 77
r 0.59032 0 1 tcp 1040 ------- 1 0.0 4.0 45 73
+ 0.59032 1 4 tcp 1040 ------- 1 0.0 4.0 45 73
- 0.59032 1 4 tcp 1040 ------- 1 0.0 4.0 45 73
r 0.592 1 4 tcp 1040 ------- 1 0.0 4.0 43 69
+ 0.592 4 1 ack 40 ------- 1 4.0 0.0 43 104
- 0.592 4 1 ack 40 ------- 1 4.0 0.0 43 104
r 0.594 4 1 ack 40 ------- 1 4.0 0.0 42 102
+ 0.594 1 0 ack 40 ------- 1 4.0 0.0 42 102
- 0.594 1 0 ack 40 ------- 1 4.0 0.0 42 102
r 0.596 1 0 ack 40 ------- 1 4.0 0.0 41 100
+ 0.596 0 1 tcp 1040 ------- 1 0.0 4.0 61 105
- 0.59696 0 1 tcp 1040 ------- 1 0.0 4.0 48 79
r 0.59864 0 1 tcp 1040 ------- 1 0.0 4.0 46 75
+ 0.59864 1 4 tcp 1040 ------- 1 0.0 4.0 46 75
- 0.59864 1 4 tcp 1040 ------- 1 0.0 4.0 46 75
r 0.60032 1 4 tcp 1040 ------- 1 0.0 4.0 44 71
+ 0.60032 4 1 ack 40 ------- 1 4.0 0.0 44 106
- 0.60032 4 1 ack 40 ------- 1 4.0 0.0 44 106
r 0.60232 4 1 ack 40 ------- 1 4.0 0.0 43 104
+ 0.60232 1 0 ack 40 ------- 1 4.0 0.0 43 104
- 0.60232 1 0 ack 40 ------- 1 4.0 0.0 43 104
r 0.60432 1 0 ack 40 ------- 1 4.0 0.0 42 102
+ 0.60432 0 1 tcp 1040 ------- 1 0.0 4.0 62 107
- 0.60528 0 1 tcp 1040 ------- 1 0.0 4.0 49 81
r 0.60696 0 1 tcp 1040 ------- 1 0.0 4.0 47 77
+ 0.60696 1 4 tcp 1040 ------- 1 0.0 4.0 47 77
- 0.60696 1 4 tcp 1040 ------- 1 0.0 4.0 47 77
r 0.60864 1 4 tcp 1040 ------- 1 0.0 4.0 45 73
+ 0.60864 4 1 ack 40 ------- 1 4.0 0.0 45 108
- 0.60864 4 1 ack 40 ------- 1 4.0 0.0 45 108
r 0.61064 4 1 ack 40 ------- 1 4.0 0.0 44 106
+ 0.61064 1 0 ack 40 ------- 1 4.0 0.0 44 106
- 0.61064 1 0 ack 40 ------- 1 4.0 0.0 44 106
r 0.61264 1 0 ack 40 ------- 1 4.0 0.0 43 104
+ 0.61264 0 1 tcp 1040 ------- 1 0.0 4.0 63 109
- 0.6136 0 1 tcp 1040 ------- 1 0.0 4.0 50 83
r 0.61528 0 1 tcp 1040 ------- 1 0.0 4.0 48 79
+ 0.61528 1 4 tcp 1040 ------- 1 0.0 4.0 48 79
- 0.61528 1 4 tcp 1040 ------- 1 0.0 4.0 48 79
r 0.61696 1 4 tcp 1040 ------- 1 0.0 4.0 46 75
+ 0.61696 4 1 ack 40 ------- 1 4.0 0.0 46 110
- 0.61696 4 1 ack 40 ------- 1 4.0 0.0 46 110
r 0.61896 4 1 ack 40 ------- 1 4.0 0.0 45 108
+ 0.61896 1 0 ack 40 ------- 1 4.0 0.0 45 108
- 0.61896 1 0 ack 40 ------- 1 4.0 0.0 45 108
r 0.62096 1 0 ack 40 ------- 1 4.0 0.0 44 106
+ 0.62096 0 1 tcp 1040 ------- 1 0.0 4.0 64 111
- 0.62192 0 1 tcp 1040 ------- 1 0.0 4.0 51 85
r 0.6236 0 1 tcp 1040 ------- 1 0.0 4.0 49 81
+ 0.6236 1 4 tcp 1040 ------- 1 0.0 4.0 49 81
- 0.6236 1 4 tcp 1040 ------- 1 0.0 4.0 49 81
r 0.62528 1 4 tcp 1040 ------- 1 0.0 4.0 47 77
+ 0.62528 4 1 ack 40 ------- 1 4.0 0.0 47 112
- 0.62528 4 1 ack 40 ------- 1 4.0 0.0 47 112
r 0.62728 4 1 ack 40 ------- 1 4.0 0.0 46 110
+ 0.62728 1 0 ack 40 ------- 1 4.0 0.0 46 110
- 0.62728 1 0 ack 40 ------- 1 4.0 0.0 46 110
r 0.62928 1 0 ack 40 ------- 1 4.0 0.0 45 108
+ 0.62928 0 1 tcp 1040 ------- 1 0.0 4.0 65 113
- 0.63024 0 1 tcp 1040 ------- 1 0.0 4.0 52 87
r 0.63192 0 1 tcp 1040 ------- 1 0.0 4.0 50 83
+ 0.63192 1 4 tcp 1040 ------- 1 0.0 4.0 50 83
- 0.63192 1 4 tcp 1040 ------- 1 0.0 4.0 50 83
r 0.6336 1 4 tcp 1040 ------- 1 0.0 4.0 48 79
+ 0.6336 4 1 ack 40 ------- 1 4.0 0.0 48 114
- 0.6336 4 1 ack 40 ------- 1 4.0 0.0 48 114
r 0.6356 4 1 ack 40 ------- 1 4.0 0.0 47 112
+ 0.6356 1 0 ack 40 ------- 1 4.0 0.0 47 112
- 0.6356 1 0 ack 40 ------- 1 4.0 0.0 47 112
r 0.6376 1 0 ack 40 ------- 1 4.0 0.0 46 110
+ 0.6376 0 1 tcp 1040 ------- 1 0.0 4.0 66 115
- 0.63856 0 1 tcp 1040 ------- 1 0.0 4.0 53 89
r 0.64024 0 1 tcp 1040 ------- 1 0.0 4.0 51 85
+ 0.64024 1 4 tcp 1040 ------- 1 0.0 4.0 51 85
- 0.64024 1 4 tcp 1040 ------- 1 0.0 4.0 51 85
r 0.64192 1 4 tcp 1040 ------- 1 0.0 4.0 49 81
+ 0.64192 4 1 ack 40 ------- 1 4.0 0.0 49 116
- 0.64192 4 1 ack 40 ------- 1 4.0 0.0 49 116
r 0.64392 4 1 ack 40 ------- 1 4.0 0.0 48 114
+ 0.64392 1 0 ack 40 ------- 1 4.0 0.0 48 114
- 0.64392 1 0 ack 40 ------- 1 4.0 0.0 48 114
r 0.64592 1 0 ack 40 ------- 1 4.0 0.0 47 112
+ 0.64592 0 1 tcp 1040 ------- 1 0.0 4.0 67 117
- 0.64688 0 1 tcp 1040 ------- 1 0.0 4.0 54 91
r 0.64856 0 1 tcp 1040 ------- 1 0.0 4.0 52 87
+ 0.64856 1 4 tcp 1040 ------- 1 0.0 4.0 52 87
- 0.64856 1 4 tcp 1040 ------- 1 0.0 4.0 52 87
r 0.65024 1 4 tcp 1040 ------- 1 0.0 4.0 50 83
+ 0.65024 4 1 ack 40 ------- 1 4.0 0.0 50 118
- 0.65024 4 1 ack 40 ------- 1 4.0 0.0 50 118
r 0.65224 4 1 ack 40 ------- 1 4.0 0.0 49 116
+ 0.65224 1 0 ack 40 ------- 1 4.0 0.0 49 116
- 0.65224 1 0 ack 40 ------- 1 4.0 0.0 49 116
r 0.65424 1 0 ack 40 ------- 1 4.0 0.0 48 114
+ 0.65424 0 1 tcp 1040 ------- 1 0.0 4.0 68 119
- 0.6552 0 1 tcp 1040 ------- 1 0.0 4.0 55 93
r 0.65688 0 1 tcp 1040 ------- 1 0.0 4.0 53 89
+ 0.65688 1 4 tcp 1040 ------- 1 0.0 4.0 53 89
- 0.65688 1 4 tcp 1040 ------- 1 0.0 4.0 53 89
r 0.65856 1 4 tcp 1040 ------- 1 0.0 4.0 51 85
+ 0.65856 4 1 ack 40 ------- 1 4.0 0.0 51 120
- 0.65856 4 1 ack 40 ------- 1 4.0 0.0 51 120
r 0.66056 4 1 ack 40 ------- 1 4.0 0.0 50 118
+ 0.66056 1 0 ack 40 ------- 1 4.0 0.0 50 118
- 0.66056 1 0 ack 40 ------- 1 4.0 0.0 50 118
r 0.66256 1 0 ack 40 ------- 1 4.0 0.0 49 116
+ 0.66256 0 1 tcp 1040 ------- 1 0.0 4.0 69 121
- 0.66352 0 1 tcp 1040 ------- 1 0.0 4.0 56 95
r 0.6652 0 1 tcp 1040 ------- 1 0.0 4.0 54 91
+ 0.6652 1 4 tcp 1040 ------- 1 0.0 4.0 54 91
- 0.6652 1 4 tcp 1040 ------- 1 0.0 4.0 54 91
r 0.66688 1 4 tcp 1040 ------- 1 0.0 4.0 52 87
+ 0.66688 4 1 ack 40 ------- 1 4.0 0.0 52 122
- 0.66688 4 1 ack 40 ------- 1 4.0 0.0 52 122
r 0.66888 4 1 ack 40 ------- 1 4.0 0.0 51 120
+ 0.66888 1 0 ack 40 ------- 1 4.0 0.0 51 120
- 0.66888 1 0 ack 40 ------- 1 4.0 0.0 51 120