V -t * -v 1.0a5 -a 0
A -t * -n 1 -p 0 -o 0x7fffffff -c 30 -a 1
A -t * -h 1 -m 1073741823 -s 0
c -t * -i 1 -n Blue
c -t * -i 2 -n Red
n -t * -a 0 -s 0 -S UP -v circle -c black -i black
n -t * -a 1 -s 1 -S UP -v circle -c black -i black
n -t * -a 2 -s 2 -S UP -v circle -c black -i black
n -t * -a 3 -s 3 -S UP -v circle -c black -i black
l -t * -s 0 -d 2 -S UP -r 2000000 -D 0.002 -c black
l -t * -s 1 -d 2 -S UP -r 2000000 -D 0.002 -c black
l -t * -s 2 -d 3 -S UP -r 400000 -D 0.01 -c black
+ -t 0.1 -s 3 -d 2 -p tcp -e 40 -c 0 -i 0 -a 0 -x {3.0 0.0 0 ------- null}
- -t 0.1 -s 3 -d 2 -p tcp -e 40 -c 0 -i 0 -a 0 -x {3.0 0.0 0 ------- null}
h -t 0.1 -s 3 -d 2 -p tcp -e 40 -c 0 -i 0 -a 0 -x {3.0 0.0 -1 ------- null}
r -t 0.1108 -s 3 -d 2 -p tcp -e 40 -c 0 -i 0 -a 0 -x {3.0 0.0 0 ------- null}
+ -t 0.1108 -s 2 -d 0 -p tcp -e 40 -c 0 -i 0 -a 0 -x {3.0 0.0 0 ------- null}
- -t 0.1108 -s 2 -d 0 -p tcp -e 40 -c 0 -i 0 -a 0 -x {3.0 0.0 0 ------- null}
h -t 0.1108 -s 2 -d 0 -p tcp -e 40 -c 0 -i 0 -a 0 -x {3.0 0.0 -1 ------- null}
r -t 0.11296 -s 2 -d 0 -p tcp -e 40 -c 0 -i 0 -a 0 -x {3.0 0.0 0 ------- null}
+ -t 0.11296 -s 0 -d 2 -p ack -e 40 -c 0 -i 1 -a 0 -x {0.0 3.0 0 ------- null}
- -t 0.11296 -s 0 -d 2 -p ack -e 40 -c 0 -i 1 -a 0 -x {0.0 3.0 0 ------- null}
h -t 0.11296 -s 0 -d 2 -p ack -e 40 -c 0 -i 1 -a 0 -x {0.0 3.0 -1 ------- null}
r -t 0.11512 -s 0 -d 2 -p ack -e 40 -c 0 -i 1 -a 0 -x {0.0 3.0 0 ------- null}
+ -t 0.11512 -s 2 -d 3 -p ack -e 40 -c 0 -i 1 -a 0 -x {0.0 3.0 0 ------- null}
- -t 0.11512 -s 2 -d 3 -p ack -e 40 -c 0 -i 1 -a 0 -x {0.0 3.0 0 ------- null}
h -t 0.11512 -s 2 -d 3 -p ack -e 40 -c 0 -i 1 -a 0 -x {0.0 3.0 -1 ------- null}
r -t 0.12592 -s 2 -d 3 -p ack -e 40 -c 0 -i 1 -a 0 -x {0.0 3.0 0 ------- null}
+ -t 0.12592 -s 3 -d 2 -p tcp -e 1040 -c 0 -i 2 -a 0 -x {3.0 0.0 1 ------- null}
- -t 0.12592 -s 3 -d 2 -p tcp -e 1040 -c 0 -i 2 -a 0 -x {3.0 0.0 1 ------- null}
h -t 0.12592 -s 3 -d 2 -p tcp -e 1040 -c 0 -i 2 -a 0 -x {3.0 0.0 -1 ------- null}
+ -t 0.12592 -s 3 -d 2 -p tcp -e 1040 -c 0 -i 3 -a 0 -x {3.0 0.0 2 ------- null}
- -t 0.14672 -s 3 -d 2 -p tcp -e 1040 -c 0 -i 3 -a 0 -x {3.0 0.0 2 ------- null}
h -t 0.14672 -s 3 -d 2 -p tcp -e 1040 -c 0 -i 3 -a 0 -x {3.0 0.0 -1 ------- null}
r -t 0.15672 -s 3 -d 2 -p tcp -e 1040 -c 0 -i 2 -a 0 -x {3.0 0.0 1 ------- null}
+ -t 0.15672 -s 2 -d 0 -p tcp -e 1040 -c 0 -i 2 -a 0 -x {3.0 0.0 1 ------- null}
- -t 0.15672 -s 2 -d 0 -p tcp -e 1040 -c 0 -i 2 -a 0 -x {3.0 0.0 1 ------- null}
h -t 0.15672 -s 2 -d 0 -p tcp -e 1040 -c 0 -i 2 -a 0 -x {3.0 0.0 -1 ------- null}
r -t 0.16288 -s 2 -d 0 -p tcp -e 1040 -c 0 -i 2 -a 0 -x {3.0 0.0 1 ------- null}
+ -t 0.16288 -s 0 -d 2 -p ack -e 40 -c 0 -i 4 -a 0 -x {0.0 3.0 1 ------- null}
- -t 0.16288 -s 0 -d 2 -p ack -e 40 -c 0 -i 4 -a 0 -x {0.0 3.0 1 ------- null}
h -t 0.16288 -s 0 -d 2 -p ack -e 40 -c 0 -i 4 -a 0 -x {0.0 3.0 -1 ------- null}
r -t 0.16504 -s 0 -d 2 -p ack -e 40 -c 0 -i 4 -a 0 -x {0.0 3.0 1 ------- null}
+ -t 0.16504 -s 2 -d 3 -p ack -e 40 -c 0 -i 4 -a 0 -x {0.0 3.0 1 ------- null}
- -t 0.16504 -s 2 -d 3 -p ack -e 40 -c 0 -i 4 -a 0 -x {0.0 3.0 1 ------- null}
h -t 0.16504 -s 2 -d 3 -p ack -e 40 -c 0 -i 4 -a 0 -x {0.0 3.0 -1 ------- null}
r -t 0.17584 -s 2 -d 3 -p ack -e 40 -c 0 -i 4 -a 0 -x {0.0 3.0 1 ------- null}
+ -t 0.17584 -s 3 -d 2 -p tcp -e 1040 -c 0 -i 5 -a 0 -x {3.0 0.0 3 ------- null}
- -t 0.17584 -s 3 -d 2 -p tcp -e 1040 -c 0 -i 5 -a 0 -x {3.0 0.0 3 ------- null}
h -t 0.17584 -s 3 -d 2 -p tcp -e 1040 -c 0 -i 5 -a 0 -x {3.0 0.0 -1 ------- null}
+ -t 0.17584 -s 3 -d 2 -p tcp -e 1040 -c 0 -i 6 -a 0 -x {3.0 0.0 4 ------- null}
r -t 0.17752 -s 3 -d 2 -p tcp -e 1040 -c 0 -i 3 -a 0 -x {3.0 0.0 2 ------- null}
+ -t 0.17752 -s 2 -d 0 -p tcp -e 1040 -c 0 -i 3 -a 0 -x {3.0 0.0 2 ------- null}
- -t 0.17752 -s 2 -d 0 -p tcp -e 1040 -c 0 -i 3 -a 0 -x {3.0 0.0 2 ------- null}
h -t 0.17752 -s 2 -d 0 -p tcp -e 1040 -c 0 -i 3 -a 0 -x {3.0 0.0 -1 ------- null}
r -t 0.18368 -s 2 -d 0 -p tcp -e 1040 -c 0 -i 3 -a 0 -x {3.0 0.0 2 ------- null}
+ -t 0.18368 -s 0 -d 2 -p ack -e 40 -c 0 -i 7 -a 0 -x {0.0 3.0 2 ------- null}
- -t 0.18368 -s 0 -d 2 -p ack -e 40 -c 0 -i 7 -a 0 -x {0.0 3.0 2 ------- null}
h -t 0.18368 -s 0 -d 2 -p ack -e 40 -c 0 -i 7 -a 0 -x {0.0 3.0 -1 ------- null}
r -t 0.18584 -s 0 -d 2 -p ack -e 40 -c 0 -i 7 -a 0 -x {0.0 3.0 2 ------- null}
+ -t 0.18584 -s 2 -d 3 -p ack -e 40 -c 0 -i 7 -a 0 -x {0.0 3.0 2 ------- null}
- -t 0.18584 -s 2 -d 3 -p ack -e 40 -c 0 -i 7 -a 0 -x {0.0 3.0 2 ------- null}
h -t 0.18584 -s 2 -d 3 -p ack -e 40 -c 0 -i 7 -a 0 -x {0.0 3.0 -1 ------- null}
- -t 0.19664 -s 3 -d 2 -p tcp -e 1040 -c 0 -i 6 -a 0 -x {3.0 0.0 4 ------- null}
h -t 0.19664 -s 3 -d 2 -p tcp -e 1040 -c 0 -i 6 -a 0 -x {3.0 0.0 -1 ------- null}
r -t 0.19664 -s 2 -d 3 -p ack -e 40 -c 0 -i 7 -a 0 -x {0.0 3.0 2 ------- null}
+ -t 0.19664 -s 3 -d 2 -p tcp -e 1040 -c 0 -i 8 -a 0 -x {3.0 0.0 5 ------- null}
+ -t 0.19664 -s 3 -d 2 -p tcp -e 1040 -c 0 -i 9 -a 0 -x {3.0 0.0 6 ------- null}
r -t 0.20664 -s 3 -d 2 -p tcp -e 1040 -c 0 -i 5 -a 0 -x {3.0 0.0 3 ------- null}
+ -t 0.20664 -s 2 -d 0 -p tcp -e 1040 -c 0 -i 5 -a 0 -x {3.0 0.0 3 ------- null}
- -t 0.20664 -s 2 -d 0 -p tcp -e 1040 -c 0 -i 5 -a 0 -x {3.0 0.0 3 ------- null}
h -t 0.20664 -s 2 -d 0 -p tcp -e 1040 -c 0 -i 5 -a 0 -x {3.0 0.0 -1 ------- null}
r -t 0.2128 -s 2 -d 0 -p tcp -e 1040 -c 0 -i 5 -a 0 -x {3.0 0.0 3 ------- null}
+ -t 0.2128 -s 0 -d 2 -p ack -e 40 -c 0 -i 10 -a 0 -x {0.0 3.0 3 ------- null}
- -t 0.2128 -s 0 -d 2 -p ack -e 40 -c 0 -i 10 -a 0 -x {0.0 3.0 3 ------- null}
h -t 0.2128 -s 0 -d 2 -p ack -e 40 -c 0 -i 10 -a 0 -x {0.0 3.0 -1 ------- null}
r -t 0.21496 -s 0 -d 2 -p ack -e 40 -c 0 -i 10 -a 0 -x {0.0 3.0 3 ------- null}
+ -t 0.21496 -s 2 -d 3 -p ack -e 40 -c 0 -i 10 -a 0 -x {0.0 3.0 3 ------- null}
- -t 0.21496 -s 2 -d 3 -p ack -e 40 -c 0 -i 10 -a 0 -x {0.0 3.0 3 ------- null}
h -t 0.21496 -s 2 -d 3 -p ack -e 40 -c 0 -i 10 -a 0 -x {0.0 3.0 -1 ------- null}
- -t 0.21744 -s 3 -d 2 -p tcp -e 1040 -c 0 -i 8 -a 0 -x {3.0 0.0 5 ------- null}
h -t 0.21744 -s 3 -d 2 -p tcp -e 1040 -c 0 -i 8 -a 0 -x {3.0 0.0 -1 ------- null}
r -t 0.22576 -s 2 -d 3 -p ack -e 40 -c 0 -i 10 -a 0 -x {0.0 3.0 3 ------- null}
+ -t 0.22576 -s 3 -d 2 -p tcp -e 1040 -c 0 -i 11 -a 0 -x {3.0 0.0 7 ------- null}
+ -t 0.22576 -s 3 -d 2 -p tcp -e 1040 -c 0 -i 12 -a 0 -x {3.0 0.0 8 ------- null}
r -t 0.22744 -s 3 -d 2 -p tcp -e 1040 -c 0 -i 6 -a 0 -x {3.0 0.0 4 ------- null}
+ -t 0.22744 -s 2 -d 0 -p tcp -e 1040 -c 0 -i 6 -a 0 -x {3.0 0.0 4 ------- null}
- -t 0.22744 -s 2 -d 0 -p tcp -e 1040 -c 0 -i 6 -a 0 -x {3.0 0.0 4 ------- null}
h -t 0.22744 -s 2 -d 0 -p tcp -e 1040 -c 0 -i 6 -a 0 -x {3.0 0.0 -1 ------- null}
r -t 0.2336 -s 2 -d 0 -p tcp -e 1040 -c 0 -i 6 -a 0 -x {3.0 0.0 4 ------- null}
+ -t 0.2336 -s 0 -d 2 -p ack -e 40 -c 0 -i 13 -a 0 -x {0.0 3.0 4 ------- null}
- -t 0.2336 -s 0 -d 2 -p ack -e 40 -c 0 -i 13 -a 0 -x {0.0 3.0 4 ------- null}
h -t 0.2336 -s 0 -d 2 -p ack -e 40 -c 0 -i 13 -a 0 -x {0.0 3.0 -1 ------- null}
r -t 0.23576 -s 0 -d 2 -p ack -e 40 -c 0 -i 13 -a 0 -x {0.0 3.0 4 ------- null}
+ -t 0.23576 -s 2 -d 3 -p ack -e 40 -c 0 -i 13 -a 0 -x {0.0 3.0 4 ------- null}
- -t 0.23576 -s 2 -d 3 -p ack -e 40 -c 0 -i 13 -a 0 -x {0.0 3.0 4 ------- null}
h -t 0.23576 -s 2 -d 3 -p ack -e 40 -c 0 -i 13 -a 0 -x {0.0 3.0 -1 ------- null}
- -t 0.23824 -s 3 -d 2 -p tcp -e 1040 -c 0 -i 9 -a 0 -x {3.0 0.0 6 ------- null}
h -t 0.23824 -s 3 -d 2 -p tcp -e 1040 -c 0 -i 9 -a 0 -x {3.0 0.0 -1 ------- null}
r -t 0.24656 -s 2 -d 3 -p ack -e 40 -c 0 -i 13 -a 0 -x {0.0 3.0 4 ------- null}
+ -t 0.24656 -s 3 -d 2 -p tcp -e 1040 -c 0 -i 14 -a 0 -x {3.0 0.0 9 ------- null}
+ -t 0.24656 -s 3 -d 2 -p tcp -e 1040 -c 0 -i 15 -a 0 -x {3.0 0.0 10 ------- null}
r -t 0.24824 -s 3 -d 2 -p tcp -e 1040 -c 0 -i 8 -a 0 -x {3.0 0.0 5 ------- null}
+ -t 0.24824 -s 2 -d 0 -p tcp -e 1040 -c 0 -i 8 -a 0 -x {3.0 0.0 5 ------- null}
- -t 0.24824 -s 2 -d 0 -p tcp -e 1040 -c 0 -i 8 -a 0 -x {3.0 0.0 5 ------- null}
h -t 0.24824 -s 2 -d 0 -p tcp -e 1040 -c 0 -i 8 -a 0 -x {3.0 0.0 -1 ------- null}
r -t 0.2544 -s 2 -d 0 -p tcp -e 1040 -c 0 -i 8 -a 0 -x {3.0 0.0 5 ------- null}
+ -t 0.2544 -s 0 -d 2 -p ack -e 40 -c 0 -i 16 -a 0 -x {0.0 3.0 5 ------- null}
- -t 0.2544 -s 0 -d 2 -p ack -e 40 -c 0 -i 16 -a 0 -x {0.0 3.0 5 ------- null}
h -t 0.2544 -s 0 -d 2 -p ack -e 40 -c 0 -i 16 -a 0 -x {0.0 3.0 -1 ------- null}
r -t 0.25656 -s 0 -d 2 -p ack -e 40 -c 0 -i 16 -a 0 -x {0.0 3.0 5 ------- null}
+ -t 0.25656 -s 2 -d 3 -p ack -e 40 -c 0 -i 16 -a 0 -x {0.0 3.0 5 ------- null}
- -t 0.25656 -s 2 -d 3 -p ack -e 40 -c 0 -i 16 -a 0 -x {0.0 3.0 5 ------- null}
h -t 0.25656 -s 2 -d 3 -p ack -e 40 -c 0 -i 16 -a 0 -x {0.0 3.0 -1 ------- null}
- -t 0.25904 -s 3 -d 2 -p tcp -e 1040 -c 0 -i 11 -a 0 -x {3.0 0.0 7 ------- null}
h -t 0.25904 -s 3 -d 2 -p tcp -e 1040 -c 0 -i 11 -a 0 -x {3.0 0.0 -1 ------- null}
r -t 0.26736 -s 2 -d 3 -p ack -e 40 -c 0 -i 16 -a 0 -x {0.0 3.0 5 ------- null}
+ -t 0.26736 -s 3 -d 2 -p tcp -e 1040 -c 0 -i 17 -a 0 -x {3.0 0.0 11 ------- null}
+ -t 0.26736 -s 3 -d 2 -p tcp -e 1040 -c 0 -i 18 -a 0 -x {3.0 0.0 12 ------- null}
r -t 0.26904 -s 3 -d 2 -p tcp -e 1040 -c 0 -i 9 -a 0 -x {3.0 0.0 6 ------- null}
+ -t 0.26904 -s 2 -d 0 -p tcp -e 1040 -c 0 -i 9 -a 0 -x {3.0 0.0 6 ------- null}
- -t 0.26904 -s 2 -d 0 -p tcp -e 1040 -c 0 -i 9 -a 0 -x {3.0 0.0 6 ------- null}
h -t 0.26904 -s 2 -d 0 -p tcp -e 1040 -c 0 -i 9 -a 0 -x {3.0 0.0 -1 ------- null}
r -t 0.2752 -s 2 -d 0 -p tcp -e 1040 -c 0 -i 9 -a 0 -x {3.0 0.0 6 ------- null}
+ -t 0.2752 -s 0 -d 2 -p ack -e 40 -c 0 -i 19 -a 0 -x {0.0 3.0 6 ------- null}
- -t 0.2752 -s 0 -d 2 -p ack -e 40 -c 0 -i 19 -a 0 -x {0.0 3.0 6 ------- null}
h -t 0.2752 -s 0 -d 2 -p ack -e 40 -c 0 -i 19 -a 0 -x {0.0 3.0 -1 ------- null}
r -t 0.27736 -s 0 -d 2 -p ack -e 40 -c 0 -i 19 -a 0 -x {0.0 3.0 6 ------- null}
+ -t 0.27736 -s 2 -d 3 -p ack -e 40 -c 0 -i 19 -a 0 -x {0.0 3.0 6 ------- null}
- -t 0.27736 -s 2 -d 3 -p ack -e 40 -c 0 -i 19 -a 0 -x {0.0 3.0 6 ------- null}
h -t 0.27736 -s 2 -d 3 -p ack -e 40 -c 0 -i 19 -a 0 -x {0.0 3.0 -1 ------- null}
- -t 0.27984 -s 3 -d 2 -p tcp -e 1040 -c 0 -i 12 -a 0 -x {3.0 0.0 8 ------- null}
h -t 0.27984 -s 3 -d 2 -p tcp -e 1040 -c 0 -i 12 -a 0 -x {3.0 0.0 -1 ------- null}
r -t 0.28816 -s 2 -d 3 -p ack -e 40 -c 0 -i 19 -a 0 -x {0.0 3.0 6 ------- null}
+ -t 0.28816 -s 3 -d 2 -p tcp -e 1040 -c 0 -i 20 -a 0 -x {3.0 0.0 13 ------- null}
+ -t 0.28816 -s 3 -d 2 -p tcp -e 1040 -c 0 -i 21 -a 0 -x {3.0 0.0 14 ------- null}
r -t 0.28984 -s 3 -d 2 -p tcp -e 1040 -c 0 -i 11 -a 0 -x {3.0 0.0 7 ------- null}
+ -t 0.28984 -s 2 -d 0 -p tcp -e 1040 -c 0 -i 11 -a 0 -x {3.0 0.0 7 ------- null}
- -t 0.28984 -s 2 -d 0 -p tcp -e 1040 -c 0 -i 11 -a 0 -x {3.0 0.0 7 ------- null}
h -t 0.28984 -s 2 -d 0 -p tcp -e 1040 -c 0 -i 11 -a 0 -x {3.0 0.0 -1 ------- null}
r -t 0.296 -s 2 -d 0 -p tcp -e 1040 -c 0 -i 11 -a 0 -x {3.0 0.0 7 ------- null}
+ -t 0.296 -s 0 -d 2 -p ack -e 40 -c 0 -i 22 -a 0 -x {0.0 3.0 7 ------- null}
- -t 0.296 -s 0 -d 2 -p ack -e 40 -c 0 -i 22 -a 0 -x {0.0 3.0 7 ------- null}
h -t 0.296 -s 0 -d 2 -p ack -e 40 -c 0 -i 22 -a 0 -x {0.0 3.0 -1 ------- null}
r -t 0.29816 -s 0 -d 2 -p ack -e 40 -c 0 -i 22 -a 0 -x {0.0 3.0 7 ------- null}
+ -t 0.29816 -s 2 -d 3 -p ack -e 40 -c 0 -i 22 -a 0 -x {0.0 3.0 7 ------- null}
- -t 0.29816 -s 2 -d 3 -p ack -e 40 -c 0 -i 22 -a 0 -x {0.0 3.0 7 ------- null}
h -t 0.29816 -s 2 -d 3 -p ack -e 40 -c 0 -i 22 -a 0 -x {0.0 3.0 -1 ------- null}
- -t 0.30064 -s 3 -d 2 -p tcp -e 1040 -c 0 -i 14 -a 0 -x {3.0 0.0 9 ------- null}
h -t 0.30064 -s 3 -d 2 -p tcp -e 1040 -c 0 -i 14 -a 0 -x {3.0 0.0 -1 ------- null}
r -t 0.30896 -s 2 -d 3 -p ack -e 40 -c 0 -i 22 -a 0 -x {0.0 3.0 7 ------- null}
+ -t 0.30896 -s 3 -d 2 -p tcp -e 1040 -c 0 -i 23 -a 0 -x {3.0 0.0 15 ------- null}
+ -t 0.30896 -s 3 -d 2 -p tcp -e 1040 -c 0 -i 24 -a 0 -x {3.0 0.0 16 ------- null}
r -t 0.31064 -s 3 -d 2 -p tcp -e 1040 -c 0 -i 12 -a 0 -x {3.0 0.0 8 ------- null}
+ -t 0.31064 -s 2 -d 0 -p tcp -e 1040 -c 0 -i 12 -a 0 -x {3.0 0.0 8 ------- null}
- -t 0.31064 -s 2 -d 0 -p tcp -e 1040 -c 0 -i 12 -a 0 -x {3.0 0.0 8 ------- null}
h -t 0.31064 -s 2 -d 0 -p tcp -e 1040 -c 0 -i 12 -a 0 -x {3.0 0.0 -1 ------- null}
r -t 0.3168 -s 2 -d 0 -p tcp -e 1040 -c 0 -i 12 -a 0 -x {3.0 0.0 8 ------- null}
+ -t 0.3168 -s 0 -d 2 -p ack -e 40 -c 0 -i 25 -a 0 -x {0.0 3.0 8 ------- null}
- -t 0.3168 -s 0 -d 2 -p ack -e 40 -c 0 -i 25 -a 0 -x {0.0 3.0 8 ------- null}
h -t 0.3168 -s 0 -d 2 -p ack -e 40 -c 0 -i 25 -a 0 -x {0.0 3.0 -1 ------- null}
r -t 0.31896 -s 0 -d 2 -p ack -e 40 -c 0 -i 25 -a 0 -x {0.0 3.0 8 ------- null}
+ -t 0.31896 -s 2 -d 3 -p ack -e 40 -c 0 -i 25 -a 0 -x {0.0 3.0 8 ------- null}
- -t 0.31896 -s 2 -d 3 -p ack -e 40 -c 0 -i 25 -a 0 -x {0.0 3.0 8 ------- null}
h -t 0.31896 -s 2 -d 3 -p ack -e 40 -c 0 -i 25 -a 0 -x {0.0 3.0 -1 ------- null}
- -t 0.32144 -s 3 -d 2 -p tcp -e 1040 -c 0 -i 15 -a 0 -x {3.0 0.0 10 ------- null}
h -t 0.32144 -s 3 -d 2 -p tcp -e 1040 -c 0 -i 15 -a 0 -x {3.0 0.0 -1 ------- null}
r -t 0.32976 -s 2 -d 3 -p ack -e 40 -c 0 -i 25 -a 0 -x {0.0 3.0 8 ------- null}
+ -t 0.32976 -s 3 -d 2 -p tcp -e 1040 -c 0 -i 26 -a 0 -x {3.0 0.0 17 ------- null}
+ -t 0.32976 -s 3 -d 2 -p tcp -e 1040 -c 0 -i 27 -a 0 -x {3.0 0.0 18 ------- null}
r -t 0.33144 -s 3 -d 2 -p tcp -e 1040 -c 0 -i 14 -a 0 -x {3.0 0.0 9 ------- null}
+ -t 0.33144 -s 2 -d 0 -p tcp -e 1040 -c 0 -i 14 -a 0 -x {3.0 0.0 9 ------- null}
- -t 0.33144 -s 2 -d 0 -p tcp -e 1040 -c 0 -i 14 -a 0 -x {3.0 0.0 9 ------- null}
h -t 0.33144 -s 2 -d 0 -p tcp -e 1040 -c 0 -i 14 -a 0 -x {3.0 0.0 -1 ------- null}
r -t 0.3376 -s 2 -d 0 -p tcp -e 1040 -c 0 -i 14 -a 0 -x {3.0 0.0 9 ------- null}
+ -t 0.3376 -s 0 -d 2 -p ack -e 40 -c 0 -i 28 -a 0 -x {0.0 3.0 9 ------- null}
- -t 0.3376 -s 0 -d 2 -p ack -e 40 -c 0 -i 28 -a 0 -x {0.0 3.0 9 ------- null}
h -t 0.3376 -s 0 -d 2 -p ack -e 40 -c 0 -i 28 -a 0 -x {0.0 3.0 -1 ------- null}
r -t 0.33976 -s 0 -d 2 -p ack -e 40 -c 0 -i 28 -a 0 -x {0.0 3.0 9 ------- null}
+ -t 0.33976 -s 2 -d 3 -p ack -e 40 -c 0 -i 28 -a 0 -x {0.0 3.0 9 ------- null}
- -t 0.33976 -s 2 -d 3 -p ack -e 40 -c 0 -i 28 -a 0 -x {0.0 3.0 9 ------- null}
h -t 0.33976 -s 2 -d 3 -p ack -e 40 -c 0 -i 28 -a 0 -x {0.0 3.0 -1 ------- null}
- -t 0.34224 -s 3 -d 2 -p tcp -e 1040 -c 0 -i 17 -a 0 -x {3.0 0.0 11 ------- null}
h -t 0.34224 -s 3 -d 2 -p tcp -e 1040 -c 0 -i 17 -a 0 -x {3.0 0.0 -1 ------- null}
r -t 0.35056 -s 2 -d 3 -p ack -e 40 -c 0 -i 28 -a 0 -x {0.0 3.0 9 ------- null}
+ -t 0.35056 -s 3 -d 2 -p tcp -e 1040 -c 0 -i 29 -a 0 -x {3.0 0.0 19 ------- null}
+ -t 0.35056 -s 3 -d 2 -p tcp -e 1040 -c 0 -i 30 -a 0 -x {3.0 0.0 20 ------- null}
r -t 0.35224 -s 3 -d 2 -p tcp -e 1040 -c 0 -i 15 -a 0 -x {3.0 0.0 10 ------- null}
+ -t 0.35224 -s 2 -d 0 -p tcp -e 1040 -c 0 -i 15 -a 0 -x {3.0 0.0 10 ------- null}
- -t 0.35224 -s 2 -d 0 -p tcp -e 1040 -c 0 -i 15 -a 0 -x {3.0 0.0 10 ------- null}
h -t 0.35224 -s 2 -d 0 -p tcp -e 1040 -c 0 -i 15 -a 0 -x {3.0 0.0 -1 ------- null}
r -t 0.3584 -s 2 -d 0 -p tcp -e 1040 -c 0 -i 15 -a 0 -x {3.0 0.0 10 ------- null}
+ -t 0.3584 -s 0 -d 2 -p ack -e 40 -c 0 -i 31 -a 0 -x {0.0 3.0 10 ------- null}
- -t 0.3584 -s 0 -d 2 -p ack -e 40 -c 0 -i 31 -a 0 -x {0.0 3.0 10 ------- null}
h -t 0.3584 -s 0 -d 2 -p ack -e 40 -c 0 -i 31 -a 0 -x {0.0 3.0 -1 ------- null}
r -t 0.36056 -s 0 -d 2 -p ack -e 40 -c 0 -i 31 -a 0 -x {0.0 3.0 10 ------- null}
+ -t 0.36056 -s 2 -d 3 -p ack -e 40 -c 0 -i 31 -a 0 -x {0.0 3.0 10 ------- null}
- -t 0.36056 -s 2 -d 3 -p ack -e 40 -c 0 -i 31 -a 0 -x {0.0 3.0 10 ------- null}
h -t 0.36056 -s 2 -d 3 -p ack -e 40 -c 0 -i 31 -a 0 -x {0.0 3.0 -1 ------- null}
- -t 0.36304 -s 3 -d 2 -p tcp -e 1040 -c 0 -i 18 -a 0 -x {3.0 0.0 12 ------- null}
h -t 0.36304 -s 3 -d 2 -p tcp -e 1040 -c 0 -i 18 -a 0 -x {3.0 0.0 -1 ------- null}
r -t 0.37136 -s 2 -d 3 -p ack -e 40 -c 0 -i 31 -a 0 -x {0.0 3.0 10 ------- null}
+ -t 0.37136 -s 3 -d 2 -p tcp -e 1040 -c 0 -i 32 -a 0 -x {3.0 0.0 21 ------- null}
+ -t 0.37136 -s 3 -d 2 -p tcp -e 1040 -c 0 -i 33 -a 0 -x {3.0 0.0 22 ------- null}
r -t 0.37304 -s 3 -d 2 -p tcp -e 1040 -c 0 -i 17 -a 0 -x {3.0 0.0 11 ------- null}
+ -t 0.37304 -s 2 -d 0 -p tcp -e 1040 -c 0 -i 17 -a 0 -x {3.0 0.0 11 ------- null}
- -t 0.37304 -s 2 -d 0 -p tcp -e 1040 -c 0 -i 17 -a 0 -x {3.0 0.0 11 ------- null}
h -t 0.37304 -s 2 -d 0 -p tcp -e 1040 -c 0 -i 17 -a 0 -x {3.0 0.0 -1 ------- null}
r -t 0.3792 -s 2 -d 0 -p tcp -e 1040 -c 0 -i 17 -a 0 -x {3.0 0.0 11 ------- null}
+ -t 0.3792 -s 0 -d 2 -p ack -e 40 -c 0 -i 34 -a 0 -x {0.0 3.0 11 ------- null}
- -t 0.3792 -s 0 -d 2 -p ack -e 40 -c 0 -i 34 -a 0 -x {0.0 3.0 11 ------- null}
h -t 0.3792 -s 0 -d 2 -p ack -e 40 -c 0 -i 34 -a 0 -x {0.0 3.0 -1 ------- null}
r -t 0.38136 -s 0 -d 2 -p ack -e 40 -c 0 -i 34 -a 0 -x {0.0 3.0 11 ------- null}
+ -t 0.38136 -s 2 -d 3 -p ack -e 40 -c 0 -i 34 -a 0 -x {0.0 3.0 11 ------- null}
- -t 0.38136 -s 2 -d 3 -p ack -e 40 -c 0 -i 34 -a 0 -x {0.0 3.0 11 ------- null}
h -t 0.38136 -s 2 -d 3 -p ack -e 40 -c 0 -i 34 -a 0 -x {0.0 3.0 -1 ------- null}
- -t 0.38384 -s 3 -d 2 -p tcp -e 1040 -c 0 -i 20 -a 0 -x {3.0 0.0 13 ------- null}
h -t 0.38384 -s 3 -d 2 -p tcp -e 1040 -c 0 -i 20 -a 0 -x {3.0 0.0 -1 ------- null}
r -t 0.39216 -s 2 -d 3 -p ack -e 40 -c 0 -i 34 -a 0 -x {0.0 3.0 11 ------- null}
+ -t 0.39216 -s 3 -d 2 -p tcp -e 1040 -c 0 -i 35 -a 0 -x {3.0 0.0 23 ------- null}
+ -t 0.39216 -s 3 -d 2 -p tcp -e 1040 -c 0 -i 36 -a 0 -x {3.0 0.0 24 ------- null}
r -t 0.39384 -s 3 -d 2 -p tcp -e 1040 -c 0 -i 18 -a 0 -x {3.0 0.0 12 ------- null}
+ -t 0.39384 -s 2 -d 0 -p tcp -e 1040 -c 0 -i 18 -a 0 -x {3.0 0.0 12 ------- null}
- -t 0.39384 -s 2 -d 0 -p tcp -e 1040 -c 0 -i 18 -a 0 -x {3.0 0.0 12 ------- null}
h -t 0.39384 -s 2 -d 0 -p tcp -e 1040 -c 0 -i 18 -a 0 -x {3.0 0.0 -1 ------- null}
r -t 0.4 -s 2 -d 0 -p tcp -e 1040 -c 0 -i 18 -a 0 -x {3.0 0.0 12 ------- null}
+ -t 0.4 -s 0 -d 2 -p ack -e 40 -c 0 -i 37 -a 0 -x {0.0 3.0 12 ------- null}
- -t 0.4 -s 0 -d 2 -p ack -e 40 -c 0 -i 37 -a 0 -x {0.0 3.0 12 ------- null}
h -t 0.4 -s 0 -d 2 -p ack -e 40 -c 0 -i 37 -a 0 -x {0.0 3.0 -1 ------- null}
r -t 0.40216 -s 0 -d 2 -p ack -e 40 -c 0 -i 37 -a 0 -x {0.0 3.0 12 ------- null}
+ -t 0.40216 -s 2 -d 3 -p ack -e 40 -c 0 -i 37 -a 0 -x {0.0 3.0 12 ------- null}
- -t 0.40216 -s 2 -d 3 -p ack -e 40 -c 0 -i 37 -a 0 -x {0.0 3.0 12 ------- null}
h -t 0.40216 -s 2 -d 3 -p ack -e 40 -c 0 -i 37 -a 0 -x {0.0 3.0 -1 ------- null}
- -t 0.40464 -s 3 -d 2 -p tcp -e 1040 -c 0 -i 21 -a 0 -x {3.0 0.0 14 ------- null}
h -t 0.40464 -s 3 -d 2 -p tcp -e 1040 -c 0 -i 21 -a 0 -x {3.0 0.0 -1 ------- null}
r -t 0.41296 -s 2 -d 3 -p ack -e 40 -c 0 -i 37 -a 0 -x {0.0 3.0 12 ------- null}
+ -t 0.41296 -s 3 -d 2 -p tcp -e 1040 -c 0 -i 38 -a 0 -x {3.0 0.0 25 ------- null}
+ -t 0.41296 -s 3 -d 2 -p tcp -e 1040 -c 0 -i 39 -a 0 -x {3.0 0.0 26 ------- null}
r -t 0.41464 -s 3 -d 2 -p tcp -e 1040 -c 0 -i 20 -a 0 -x {3.0 0.0 13 ------- null}
+ -t 0.41464 -s 2 -d 0 -p tcp -e 1040 -c 0 -i 20 -a 0 -x {3.0 0.0 13 ------- null}
- -t 0.41464 -s 2 -d 0 -p tcp -e 1040 -c 0 -i 20 -a 0 -x {3.0 0.0 13 ------- null}
h -t 0.41464 -s 2 -d 0 -p tcp -e 1040 -c 0 -i 20 -a 0 -x {3.0 0.0 -1 ------- null}
r -t 0.4208 -s 2 -d 0 -p tcp -e 1040 -c 0 -i 20 -a 0 -x {3.0 0.0 13 ------- null}
+ -t 0.4208 -s 0 -d 2 -p ack -e 40 -c 0 -i 40 -a 0 -x {0.0 3.0 13 ------- null}
- -t 0.4208 -s 0 -d 2 -p ack -e 40 -c 0 -i 40 -a 0 -x {0.0 3.0 13 ------- null}
h -t 0.4208 -s 0 -d 2 -p ack -e 40 -c 0 -i 40 -a 0 -x {0.0 3.0 -1 ------- null}
r -t 0.42296 -s 0 -d 2 -p ack -e 40 -c 0 -i 40 -a 0 -x {0.0 3.0 13 ------- null}
+ -t 0.42296 -s 2 -d 3 -p ack -e 40 -c 0 -i 40 -a 0 -x {0.0 3.0 13 ------- null}
- -t 0.42296 -s 2 -d 3 -p ack -e 40 -c 0 -i 40 -a 0 -x {0.0 3.0 13 ------- null}
h -t 0.42296 -s 2 -d 3 -p ack -e 40 -c 0 -i 40 -a 0 -x {0.0 3.0 -1 ------- null}
- -t 0.42544 -s 3 -d 2 -p tcp -e 1040 -c 0 -i 23 -a 0 -x {3.0 0.0 15 ------- null}
h -t 0.42544 -s 3 -d 2 -p tcp -e 1040 -c 0 -i 23 -a 0 -x {3.0 0.0 -1 ------- null}
r -t 0.43376 -s 2 -d 3 -p ack -e 40 -c 0 -i 40 -a 0 -x {0.0 3.0 13 ------- null}
+ -t 0.43376 -s 3 -d 2 -p tcp -e 1040 -c 0 -i 41 -a 0 -x {3.0 0.0 27 ------- null}
+ -t 0.43376 -s 3 -d 2 -p tcp -e 1040 -c 0 -i 42 -a 0 -x {3.0 0.0 28 ------- null}
r -t 0.43544 -s 3 -d 2 -p tcp -e 1040 -c 0 -i 21 -a 0 -x {3.0 0.0 14 ------- null}
+ -t 0.43544 -s 2 -d 0 -p tcp -e 1040 -c 0 -i 21 -a 0 -x {3.0 0.0 14 ------- null}
- -t 0.43544 -s 2 -d 0 -p tcp -e 1040 -c 0 -i 21 -a 0 -x {3.0 0.0 14 ------- null}
h -t 0.43544 -s 2 -d 0 -p tcp -e 1040 -c 0 -i 21 -a 0 -x {3.0 0.0 -1 ------- null}
r -t 0.4416 -s 2 -d 0 -p tcp -e 1040 -c 0 -i 21 -a 0 -x {3.0 0.0 14 ------- null}
+ -t 0.4416 -s 0 -d 2 -p ack -e 40 -c 0 -i 43 -a 0 -x {0.0 3.0 14 ------- null}
- -t 0.4416 -s 0 -d 2 -p ack -e 40 -c 0 -i 43 -a 0 -x {0.0 3.0 14 ------- null}
h -t 0.4416 -s 0 -d 2 -p ack -e 40 -c 0 -i 43 -a 0 -x {0.0 3.0 -1 ------- null}
r -t 0.44376 -s 0 -d 2 -p ack -e 40 -c 0 -i 43 -a 0 -x {0.0 3.0 14 ------- null}
+ -t 0.44376 -s 2 -d 3 -p ack -e 40 -c 0 -i 43 -a 0 -x {0.0 3.0 14 ------- null}
- -t 0.44376 -s 2 -d 3 -p ack -e 40 -c 0 -i 43 -a 0 -x {0.0 3.0 14 ------- null}
h -t 0.44376 -s 2 -d 3 -p ack -e 40 -c 0 -i 43 -a 0 -x {0.0 3.0 -1 ------- null}
- -t 0.44624 -s 3 -d 2 -p tcp -e 1040 -c 0 -i 24 -a 0 -x {3.0 0.0 16 ------- null}
h -t 0.44624 -s 3 -d 2 -p tcp -e 1040 -c 0 -i 24 -a 0 -x {3.0 0.0 -1 ------- null}
r -t 0.45456 -s 2 -d 3 -p ack -e 40 -c 0 -i 43 -a 0 -x {0.0 3.0 14 ------- null}
+ -t 0.45456 -s 3 -d 2 -p tcp -e 1040 -c 0 -i 44 -a 0 -x {3.0 0.0 29 ------- null}
+ -t 0.45456 -s 3 -d 2 -p tcp -e 1040 -c 0 -i 45 -a 0 -x {3.0 0.0 30 ------- null}
r -t 0.45624 -s 3 -d 2 -p tcp -e 1040 -c 0 -i 23 -a 0 -x {3.0 0.0 15 ------- null}
+ -t 0.45624 -s 2 -d 0 -p tcp -e 1040 -c 0 -i 23 -a 0 -x {3.0 0.0 15 ------- null}
- -t 0.45624 -s 2 -d 0 -p tcp -e 1040 -c 0 -i 23 -a 0 -x {3.0 0.0 15 ------- null}
h -t 0.45624 -s 2 -d 0 -p tcp -e 1040 -c 0 -i 23 -a 0 -x {3.0 0.0 -1 ------- null}
r -t 0.4624 -s 2 -d 0 -p tcp -e 1040 -c 0 -i 23 -a 0 -x {3.0 0.0 15 ------- null}
+ -t 0.4624 -s 0 -d 2 -p ack -e 40 -c 0 -i 46 -a 0 -x {0.0 3.0 15 ------- null}
- -t 0.4624 -s 0 -d 2 -p ack -e 40 -c 0 -i 46 -a 0 -x {0.0 3.0 15 ------- null}
h -t 0.4624 -s 0 -d 2 -p ack -e 40 -c 0 -i 46 -a 0 -x {0.0 3.0 -1 ------- null}
r -t 0.46456 -s 0 -d 2 -p ack -e 40 -c 0 -i 46 -a 0 -x {0.0 3.0 15 ------- null}
+ -t 0.46456 -s 2 -d 3 -p ack -e 40 -c 0 -i 46 -a 0 -x {0.0 3.0 15 ------- null}
- -t 0.46456 -s 2 -d 3 -p ack -e 40 -c 0 -i 46 -a 0 -x {0.0 3.0 15 ------- null}
h -t 0.46456 -s 2 -d 3 -p ack -e 40 -c 0 -i 46 -a 0 -x {0.0 3.0 -1 ------- null}
- -t 0.46704 -s 3 -d 2 -p tcp -e 1040 -c 0 -i 26 -a 0 -x {3.0 0.0 17 ------- null}
h -t 0.46704 -s 3 -d 2 -p tcp -e 1040 -c 0 -i 26 -a 0 -x {3.0 0.0 -1 ------- null}
r -t 0.47536 -s 2 -d 3 -p ack -e 40 -c 0 -i 46 -a 0 -x {0.0 3.0 15 ------- null}
+ -t 0.47536 -s 3 -d 2 -p tcp -e 1040 -c 0 -i 47 -a 0 -x {3.0 0.0 31 ------- null}
+ -t 0.47536 -s 3 -d 2 -p tcp -e 1040 -c 0 -i 48 -a 0 -x {3.0 0.0 32 ------- null}
r -t 0.47704 -s 3 -d 2 -p tcp -e 1040 -c 0 -i 24 -a 0 -x {3.0 0.0 16 ------- null}
+ -t 0.47704 -s 2 -d 0 -p tcp -e 1040 -c 0 -i 24 -a 0 -x {3.0 0.0 16 ------- null}
- -t 0.47704 -s 2 -d 0 -p tcp -e 1040 -c 0 -i 24 -a 0 -x {3.0 0.0 16 ------- null}
h -t 0.47704 -s 2 -d 0 -p tcp -e 1040 -c 0 -i 24 -a 0 -x {3.0 0.0 -1 ------- null}
r -t 0.4832 -s 2 -d 0 -p tcp -e 1040 -c 0 -i 24 -a 0 -x {3.0 0.0 16 ------- null}
+ -t 0.4832 -s 0 -d 2 -p ack -e 40 -c 0 -i 49 -a 0 -x {0.0 3.0 16 ------- null}
- -t 0.4832 -s 0 -d 2 -p ack -e 40 -c 0 -i 49 -a 0 -x {0.0 3.0 16 ------- null}
h -t 0.4832 -s 0 -d 2 -p ack -e 40 -c 0 -i 49 -a 0 -x {0.0 3.0 -1 ------- null}
r -t 0.48536 -s 0 -d 2 -p ack -e 40 -c 0 -i 49 -a 0 -x {0.0 3.0 16 ------- null}
+ -t 0.48536 -s 2 -d 3 -p ack -e 40 -c 0 -i 49 -a 0 -x {0.0 3.0 16 ------- null}
- -t 0.48536 -s 2 -d 3 -p ack -e 40 -c 0 -i 49 -a 0 -x {0.0 3.0 16 ------- null}
h -t 0.48536 -s 2 -d 3 -p ack -e 40 -c 0 -i 49 -a 0 -x {0.0 3.0 -1 ------- null}
- -t 0.48784 -s 3 -d 2 -p tcp -e 1040 -c 0 -i 27 -a 0 -x {3.0 0.0 18 ------- null}
h -t 0.48784 -s 3 -d 2 -p tcp -e 1040 -c 0 -i 27 -a 0 -x {3.0 0.0 -1 ------- null}
r -t 0.49616 -s 2 -d 3 -p ack -e 40 -c 0 -i 49 -a 0 -x {0.0 3.0 16 ------- null}
+ -t 0.49616 -s 3 -d 2 -p tcp -e 1040 -c 0 -i 50 -a 0 -x {3.0 0.0 33 ------- null}
+ -t 0.49616 -s 3 -d 2 -p tcp -e 1040 -c 0 -i 51 -a 0 -x {3.0 0.0 34 ------- null}
r -t 0.49784 -s 3 -d 2 -p tcp -e 1040 -c 0 -i 26 -a 0 -x {3.0 0.0 17 ------- null}
+ -t 0.49784 -s 2 -d 0 -p tcp -e 1040 -c 0 -i 26 -a 0 -x {3.0 0.0 17 ------- null}
- -t 0.49784 -s 2 -d 0 -p tcp -e 1040 -c 0 -i 26 -a 0 -x {3.0 0.0 17 ------- null}
h -t 0.49784 -s 2 -d 0 -p tcp -e 1040 -c 0 -i 26 -a 0 -x {3.0 0.0 -1 ------- null}
r -t 0.504 -s 2 -d 0 -p tcp -e 1040 -c 0 -i 26 -a 0 -x {3.0 0.0 17 ------- null}
+ -t 0.504 -s 0 -d 2 -p ack -e 40 -c 0 -i 52 -a 0 -x {0.0 3.0 17 ------- null}
- -t 0.504 -s 0 -d 2 -p ack -e 40 -c 0 -i 52 -a 0 -x {0.0 3.0 17 ------- null}
h -t 0.504 -s 0 -d 2 -p ack -e 40 -c 0 -i 52 -a 0 -x {0.0 3.0 -1 ------- null}
r -t 0.50616 -s 0 -d 2 -p ack -e 40 -c 0 -i 52 -a 0 -x {0.0 3.0 17 ------- null}
+ -t 0.50616 -s 2 -d 3 -p ack -e 40 -c 0 -i 52 -a 0 -x {0.0 3.0 17 ------- null}
- -t 0.50616 -s 2 -d 3 -p ack -e 40 -c 0 -i 52 -a 0 -x {0.0 3.0 17 ------- null}
h -t 0.50616 -s 2 -d 3 -p ack -e 40 -c 0 -i 52 -a 0 -x {0.0 3.0 -1 ------- null}
- -t 0.50864 -s 3 -d 2 -p tcp -e 1040 -c 0 -i 29 -a 0 -x {3.0 0.0 19 ------- null}
h -t 0.50864 -s 3 -d 2 -p tcp -e 1040 -c 0 -i 29 -a 0 -x {3.0 0.0 -1 ------- null}
r -t 0.51696 -s 2 -d 3 -p ack -e 40 -c 0 -i 52 -a 0 -x {0.0 3.0 17 ------- null}
+ -t 0.51696 -s 3 -d 2 -p tcp -e 1040 -c 0 -i 53 -a 0 -x {3.0 0.0 35 ------- null}
+ -t 0.51696 -s 3 -d 2 -p tcp -e 1040 -c 0 -i 54 -a 0 -x {3.0 0.0 36 ------- null}
r -t 0.51864 -s 3 -d 2 -p tcp -e 1040 -c 0 -i 27 -a 0 -x {3.0 0.0 18 ------- null}
+ -t 0.51864 -s 2 -d 0 -p tcp -e 1040 -c 0 -i 27 -a 0 -x {3.0 0.0 18 ------- null}
- -t 0.51864 -s 2 -d 0 -p tcp -e 1040 -c 0 -i 27 -a 0 -x {3.0 0.0 18 ------- null}
h -t 0.51864 -s 2 -d 0 -p tcp -e 1040 -c 0 -i 27 -a 0 -x {3.0 0.0 -1 ------- null}
r -t 0.5248 -s 2 -d 0 -p tcp -e 1040 -c 0 -i 27 -a 0 -x {3.0 0.0 18 ------- null}
+ -t 0.5248 -s 0 -d 2 -p ack -e 40 -c 0 -i 55 -a 0 -x {0.0 3.0 18 ------- null}
- -t 0.5248 -s 0 -d 2 -p ack -e 40 -c 0 -i 55 -a 0 -x {0.0 3.0 18 ------- null}
h -t 0.5248 -s 0 -d 2 -p ack -e 40 -c 0 -i 55 -a 0 -x {0.0 3.0 -1 ------- null}
r -t 0.52696 -s 0 -d 2 -p ack -e 40 -c 0 -i 55 -a 0 -x {0.0 3.0 18 ------- null}
+ -t 0.52696 -s 2 -d 3 -p ack -e 40 -c 0 -i 55 -a 0 -x {0.0 3.0 18 ------- null}
- -t 0.52696 -s 2 -d 3 -p ack -e 40 -c 0 -i 55 -a 0 -x {0.0 3.0 18 ------- null}
h -t 0.52696 -s 2 -d 3 -p ack -e 40 -c 0 -i 55 -a 0 -x {0.0 3.0 -1 ------- null}
- -t 0.52944 -s 3 -d 2 -p tcp -e 1040 -c 0 -i 30 -a 0 -x {3.0 0.0 20 ------- null}
h -t 0.52944 -s 3 -d 2 -p tcp -e 1040 -c 0 -i 30 -a 0 -x {3.0 0.0 -1 ------- null}
r -t 0.53776 -s 2 -d 3 -p ack -e 40 -c 0 -i 55 -a 0 -x {0.0 3.0 18 ------- null}
+ -t 0.53776 -s 3 -d 2 -p tcp -e 1040 -c 0 -i 56 -a 0 -x {3.0 0.0 37 ------- null}
+ -t 0.53776 -s 3 -d 2 -p tcp -e 1040 -c 0 -i 57 -a 0 -x {3.0 0.0 38 ------- null}
r -t 0.53944 -s 3 -d 2 -p tcp -e 1040 -c 0 -i 29 -a 0 -x {3.0 0.0 19 ------- null}
+ -t 0.53944 -s 2 -d 0 -p tcp -e 1040 -c 0 -i 29 -a 0 -x {3.0 0.0 19 ------- null}
- -t 0.53944 -s 2 -d 0 -p tcp -e 1040 -c 0 -i 29 -a 0 -x {3.0 0.0 19 ------- null}
h -t 0.53944 -s 2 -d 0 -p tcp -e 1040 -c 0 -i 29 -a 0 -x {3.0 0.0 -1 ------- null}
r -t 0.5456 -s 2 -d 0 -p tcp -e 1040 -c 0 -i 29 -a 0 -x {3.0 0.0 19 ------- null}
+ -t 0.5456 -s 0 -d 2 -p ack -e 40 -c 0 -i 58 -a 0 -x {0.0 3.0 19 ------- null}
- -t 0.5456 -s 0 -d 2 -p ack -e 40 -c 0 -i 58 -a 0 -x {0.0 3.0 19 ------- null}
h -t 0.5456 -s 0 -d 2 -p ack -e 40 -c 0 -i 58 -a 0 -x {0.0 3.0 -1 ------- null}
r -t 0.54776 -s 0 -d 2 -p ack -e 40 -c 0 -i 58 -a 0 -x {0.0 3.0 19 ------- null}
+ -t 0.54776 -s 2 -d 3 -p ack -e 40 -c 0 -i 58 -a 0 -x {0.0 3.0 19 ------- null}
- -t 0.54776 -s 2 -d 3 -p ack -e 40 -c 0 -i 58 -a 0 -x {0.0 3.0 19 ------- null}
h -t 0.54776 -s 2 -d 3 -p ack -e 40 -c 0 -i 58 -a 0 -x {0.0 3.0 -1 ------- null}
- -t 0.55024 -s 3 -d 2 -p tcp -e 1040 -c 0 -i 32 -a 0 -x {3.0 0.0 21 ------- null}
h -t 0.55024 -s 3 -d 2 -p tcp -e 1040 -c 0 -i 32 -a 0 -x {3.0 0.0 -1 ------- null}
r -t 0.55856 -s 2 -d 3 -p ack -e 40 -c 0 -i 58 -a 0 -x {0.0 3.0 19 ------- null}
+ -t 0.55856 -s 3 -d 2 -p tcp -e 1040 -c 0 -i 59 -a 0 -x {3.0 0.0 39 ------- null}
r -t 0.56024 -s 3 -d 2 -p tcp -e 1040 -c 0 -i 30 -a 0 -x {3.0 0.0 20 ------- null}
+ -t 0.56024 -s 2 -d 0 -p tcp -e 1040 -c 0 -i 30 -a 0 -x {3.0 0.0 20 ------- null}
- -t 0.56024 -s 2 -d 0 -p tcp -e 1040 -c 0 -i 30 -a 0 -x {3.0 0.0 20 ------- null}
h -t 0.56024 -s 2 -d 0 -p tcp -e 1040 -c 0 -i 30 -a 0 -x {3.0 0.0 -1 ------- null}
r -t 0.5664 -s 2 -d 0 -p tcp -e 1040 -c 0 -i 30 -a 0 -x {3.0 0.0 20 ------- null}
+ -t 0.5664 -s 0 -d 2 -p ack -e 40 -c 0 -i 60 -a 0 -x {0.0 3.0 20 ------- null}
- -t 0.5664 -s 0 -d 2 -p ack -e 40 -c 0 -i 60 -a 0 -x {0.0 3.0 20 ------- null}
h -t 0.5664 -s 0 -d 2 -p ack -e 40 -c 0 -i 60 -a 0 -x {0.0 3.0 -1 ------- null}
r -t 0.56856 -s 0 -d 2 -p ack -e 40 -c 0 -i 60 -a 0 -x {0.0 3.0 20 ------- null}
+ -t 0.56856 -s 2 -d 3 -p ack -e 40 -c 0 -i 60 -a 0 -x {0.0 3.0 20 ------- null}
- -t 0.56856 -s 2 -d 3 -p ack -e 40 -c 0 -i 60 -a 0 -x {0.0 3.0 20 ------- null}
h -t 0.56856 -s 2 -d 3 -p ack -e 40 -c 0 -i 60 -a 0 -x {0.0 3.0 -1 ------- null}
- -t 0.57104 -s 3 -d 2 -p tcp -e 1040 -c 0 -i 33 -a 0 -x {3.0 0.0 22 ------- null}
h -t 0.57104 -s 3 -d 2 -p tcp -e 1040 -c 0 -i 33 -a 0 -x {3.0 0.0 -1 ------- null}
r -t 0.57936 -s 2 -d 3 -p ack -e 40 -c 0 -i 60 -a 0 -x {0.0 3.0 20 ------- null}
+ -t 0.57936 -s 3 -d 2 -p tcp -e 1040 -c 0 -i 61 -a 0 -x {3.0 0.0 40 ------- null}
r -t 0.58104 -s 3 -d 2 -p tcp -e 1040 -c 0 -i 32 -a 0 -x {3.0 0.0 21 ------- null}
+ -t 0.58104 -s 2 -d 0 -p tcp -e 1040 -c 0 -i 32 -a 0 -x {3.0 0.0 21 ------- null}
- -t 0.58104 -s 2 -d 0 -p tcp -e 1040 -c 0 -i 32 -a 0 -x {3.0 0.0 21 ------- null}