+ 1.2 0 2 tcp 40 ------- 0 0.0 5.0 0 0
- 1.2 0 2 tcp 40 ------- 0 0.0 5.0 0 0
r 1.202064 0 2 tcp 40 ------- 0 0.0 5.0 0 0
+ 1.202064 2 3 tcp 40 ------- 0 0.0 5.0 0 0
- 1.202064 2 3 tcp 40 ------- 0 0.0 5.0 0 0
r 1.212277 2 3 tcp 40 ------- 0 0.0 5.0 0 0
+ 1.212277 3 5 tcp 40 ------- 0 0.0 5.0 0 0
- 1.212277 3 5 tcp 40 ------- 0 0.0 5.0 0 0
r 1.214341 3 5 tcp 40 ------- 0 0.0 5.0 0 0
+ 1.214341 5 3 ack 40 ------- 0 5.0 0.0 0 1
- 1.214341 5 3 ack 40 ------- 0 5.0 0.0 0 1
r 1.216405 5 3 ack 40 ------- 0 5.0 0.0 0 1
+ 1.216405 3 2 ack 40 ------- 0 5.0 0.0 0 1
- 1.216405 3 2 ack 40 ------- 0 5.0 0.0 0 1
r 1.226619 3 2 ack 40 ------- 0 5.0 0.0 0 1
+ 1.226619 2 0 ack 40 ------- 0 5.0 0.0 0 1
- 1.226619 2 0 ack 40 ------- 0 5.0 0.0 0 1
r 1.228683 2 0 ack 40 ------- 0 5.0 0.0 0 1
+ 1.228683 0 2 tcp 1040 ------- 0 0.0 5.0 1 2
- 1.228683 0 2 tcp 1040 ------- 0 0.0 5.0 1 2
+ 1.228683 0 2 tcp 1040 ------- 0 0.0 5.0 2 3
- 1.230347 0 2 tcp 1040 ------- 0 0.0 5.0 2 3
r 1.232347 0 2 tcp 1040 ------- 0 0.0 5.0 1 2
+ 1.232347 2 3 tcp 1040 ------- 0 0.0 5.0 1 2
- 1.232347 2 3 tcp 1040 ------- 0 0.0 5.0 1 2
r 1.234011 0 2 tcp 1040 ------- 0 0.0 5.0 2 3
+ 1.234011 2 3 tcp 1040 ------- 0 0.0 5.0 2 3
- 1.237893 2 3 tcp 1040 ------- 0 0.0 5.0 2 3
r 1.247893 2 3 tcp 1040 ------- 0 0.0 5.0 1 2
+ 1.247893 3 5 tcp 1040 ------- 0 0.0 5.0 1 2
- 1.247893 3 5 tcp 1040 ------- 0 0.0 5.0 1 2
r 1.251557 3 5 tcp 1040 ------- 0 0.0 5.0 1 2
+ 1.251557 5 3 ack 40 ------- 0 5.0 0.0 1 4
- 1.251557 5 3 ack 40 ------- 0 5.0 0.0 1 4
r 1.25344 2 3 tcp 1040 ------- 0 0.0 5.0 2 3
+ 1.25344 3 5 tcp 1040 ------- 0 0.0 5.0 2 3
- 1.25344 3 5 tcp 1040 ------- 0 0.0 5.0 2 3
r 1.253621 5 3 ack 40 ------- 0 5.0 0.0 1 4
+ 1.253621 3 2 ack 40 ------- 0 5.0 0.0 1 4
- 1.253621 3 2 ack 40 ------- 0 5.0 0.0 1 4
r 1.257104 3 5 tcp 1040 ------- 0 0.0 5.0 2 3
+ 1.257104 5 3 ack 40 ------- 0 5.0 0.0 2 5
- 1.257104 5 3 ack 40 ------- 0 5.0 0.0 2 5
r 1.259168 5 3 ack 40 ------- 0 5.0 0.0 2 5
+ 1.259168 3 2 ack 40 ------- 0 5.0 0.0 2 5
- 1.259168 3 2 ack 40 ------- 0 5.0 0.0 2 5
r 1.263835 3 2 ack 40 ------- 0 5.0 0.0 1 4
+ 1.263835 2 0 ack 40 ------- 0 5.0 0.0 1 4
- 1.263835 2 0 ack 40 ------- 0 5.0 0.0 1 4
r 1.265899 2 0 ack 40 ------- 0 5.0 0.0 1 4
+ 1.265899 0 2 tcp 1040 ------- 0 0.0 5.0 3 6
- 1.265899 0 2 tcp 1040 ------- 0 0.0 5.0 3 6
+ 1.265899 0 2 tcp 1040 ------- 0 0.0 5.0 4 7
- 1.267563 0 2 tcp 1040 ------- 0 0.0 5.0 4 7
r 1.269381 3 2 ack 40 ------- 0 5.0 0.0 2 5
+ 1.269381 2 0 ack 40 ------- 0 5.0 0.0 2 5
- 1.269381 2 0 ack 40 ------- 0 5.0 0.0 2 5
r 1.269563 0 2 tcp 1040 ------- 0 0.0 5.0 3 6
+ 1.269563 2 3 tcp 1040 ------- 0 0.0 5.0 3 6
- 1.269563 2 3 tcp 1040 ------- 0 0.0 5.0 3 6
r 1.271227 0 2 tcp 1040 ------- 0 0.0 5.0 4 7
+ 1.271227 2 3 tcp 1040 ------- 0 0.0 5.0 4 7
r 1.271445 2 0 ack 40 ------- 0 5.0 0.0 2 5
+ 1.271445 0 2 tcp 1040 ------- 0 0.0 5.0 5 8
- 1.271445 0 2 tcp 1040 ------- 0 0.0 5.0 5 8
+ 1.271445 0 2 tcp 1040 ------- 0 0.0 5.0 6 9
- 1.273109 0 2 tcp 1040 ------- 0 0.0 5.0 6 9
- 1.275109 2 3 tcp 1040 ------- 0 0.0 5.0 4 7
r 1.275109 0 2 tcp 1040 ------- 0 0.0 5.0 5 8
+ 1.275109 2 3 tcp 1040 ------- 0 0.0 5.0 5 8
r 1.276773 0 2 tcp 1040 ------- 0 0.0 5.0 6 9
+ 1.276773 2 3 tcp 1040 ------- 0 0.0 5.0 6 9
- 1.280656 2 3 tcp 1040 ------- 0 0.0 5.0 5 8
r 1.285109 2 3 tcp 1040 ------- 0 0.0 5.0 3 6
+ 1.285109 3 5 tcp 1040 ------- 0 0.0 5.0 3 6
- 1.285109 3 5 tcp 1040 ------- 0 0.0 5.0 3 6
- 1.286203 2 3 tcp 1040 ------- 0 0.0 5.0 6 9
r 1.288773 3 5 tcp 1040 ------- 0 0.0 5.0 3 6
+ 1.288773 5 3 ack 40 ------- 0 5.0 0.0 3 10
- 1.288773 5 3 ack 40 ------- 0 5.0 0.0 3 10
r 1.290656 2 3 tcp 1040 ------- 0 0.0 5.0 4 7
+ 1.290656 3 5 tcp 1040 ------- 0 0.0 5.0 4 7
- 1.290656 3 5 tcp 1040 ------- 0 0.0 5.0 4 7
r 1.290837 5 3 ack 40 ------- 0 5.0 0.0 3 10
+ 1.290837 3 2 ack 40 ------- 0 5.0 0.0 3 10
- 1.290837 3 2 ack 40 ------- 0 5.0 0.0 3 10
r 1.29432 3 5 tcp 1040 ------- 0 0.0 5.0 4 7
+ 1.29432 5 3 ack 40 ------- 0 5.0 0.0 4 11
- 1.29432 5 3 ack 40 ------- 0 5.0 0.0 4 11
r 1.296203 2 3 tcp 1040 ------- 0 0.0 5.0 5 8
+ 1.296203 3 5 tcp 1040 ------- 0 0.0 5.0 5 8
- 1.296203 3 5 tcp 1040 ------- 0 0.0 5.0 5 8
r 1.296384 5 3 ack 40 ------- 0 5.0 0.0 4 11
+ 1.296384 3 2 ack 40 ------- 0 5.0 0.0 4 11
- 1.296384 3 2 ack 40 ------- 0 5.0 0.0 4 11
r 1.299867 3 5 tcp 1040 ------- 0 0.0 5.0 5 8
+ 1.299867 5 3 ack 40 ------- 0 5.0 0.0 5 12
- 1.299867 5 3 ack 40 ------- 0 5.0 0.0 5 12
r 1.301051 3 2 ack 40 ------- 0 5.0 0.0 3 10
+ 1.301051 2 0 ack 40 ------- 0 5.0 0.0 3 10
- 1.301051 2 0 ack 40 ------- 0 5.0 0.0 3 10
r 1.301749 2 3 tcp 1040 ------- 0 0.0 5.0 6 9
+ 1.301749 3 5 tcp 1040 ------- 0 0.0 5.0 6 9
- 1.301749 3 5 tcp 1040 ------- 0 0.0 5.0 6 9
r 1.301931 5 3 ack 40 ------- 0 5.0 0.0 5 12
+ 1.301931 3 2 ack 40 ------- 0 5.0 0.0 5 12
- 1.301931 3 2 ack 40 ------- 0 5.0 0.0 5 12
r 1.303115 2 0 ack 40 ------- 0 5.0 0.0 3 10
+ 1.303115 0 2 tcp 1040 ------- 0 0.0 5.0 7 13
- 1.303115 0 2 tcp 1040 ------- 0 0.0 5.0 7 13
+ 1.303115 0 2 tcp 1040 ------- 0 0.0 5.0 8 14
- 1.304779 0 2 tcp 1040 ------- 0 0.0 5.0 8 14
r 1.305413 3 5 tcp 1040 ------- 0 0.0 5.0 6 9
+ 1.305413 5 3 ack 40 ------- 0 5.0 0.0 6 15
- 1.305413 5 3 ack 40 ------- 0 5.0 0.0 6 15
r 1.306597 3 2 ack 40 ------- 0 5.0 0.0 4 11
+ 1.306597 2 0 ack 40 ------- 0 5.0 0.0 4 11
- 1.306597 2 0 ack 40 ------- 0 5.0 0.0 4 11
r 1.306779 0 2 tcp 1040 ------- 0 0.0 5.0 7 13
+ 1.306779 2 3 tcp 1040 ------- 0 0.0 5.0 7 13
- 1.306779 2 3 tcp 1040 ------- 0 0.0 5.0 7 13
r 1.307477 5 3 ack 40 ------- 0 5.0 0.0 6 15
+ 1.307477 3 2 ack 40 ------- 0 5.0 0.0 6 15
- 1.307477 3 2 ack 40 ------- 0 5.0 0.0 6 15
r 1.308443 0 2 tcp 1040 ------- 0 0.0 5.0 8 14
+ 1.308443 2 3 tcp 1040 ------- 0 0.0 5.0 8 14
r 1.308661 2 0 ack 40 ------- 0 5.0 0.0 4 11
+ 1.308661 0 2 tcp 1040 ------- 0 0.0 5.0 9 16
- 1.308661 0 2 tcp 1040 ------- 0 0.0 5.0 9 16
+ 1.308661 0 2 tcp 1040 ------- 0 0.0 5.0 10 17
- 1.310325 0 2 tcp 1040 ------- 0 0.0 5.0 10 17
r 1.312144 3 2 ack 40 ------- 0 5.0 0.0 5 12
+ 1.312144 2 0 ack 40 ------- 0 5.0 0.0 5 12
- 1.312144 2 0 ack 40 ------- 0 5.0 0.0 5 12
- 1.312325 2 3 tcp 1040 ------- 0 0.0 5.0 8 14
r 1.312325 0 2 tcp 1040 ------- 0 0.0 5.0 9 16
+ 1.312325 2 3 tcp 1040 ------- 0 0.0 5.0 9 16
r 1.313989 0 2 tcp 1040 ------- 0 0.0 5.0 10 17
+ 1.313989 2 3 tcp 1040 ------- 0 0.0 5.0 10 17
r 1.314208 2 0 ack 40 ------- 0 5.0 0.0 5 12
+ 1.314208 0 2 tcp 1040 ------- 0 0.0 5.0 11 18
- 1.314208 0 2 tcp 1040 ------- 0 0.0 5.0 11 18
+ 1.314208 0 2 tcp 1040 ------- 0 0.0 5.0 12 19
- 1.315872 0 2 tcp 1040 ------- 0 0.0 5.0 12 19
r 1.317691 3 2 ack 40 ------- 0 5.0 0.0 6 15
+ 1.317691 2 0 ack 40 ------- 0 5.0 0.0 6 15
- 1.317691 2 0 ack 40 ------- 0 5.0 0.0 6 15
- 1.317872 2 3 tcp 1040 ------- 0 0.0 5.0 9 16
r 1.317872 0 2 tcp 1040 ------- 0 0.0 5.0 11 18
+ 1.317872 2 3 tcp 1040 ------- 0 0.0 5.0 11 18
r 1.319536 0 2 tcp 1040 ------- 0 0.0 5.0 12 19
+ 1.319536 2 3 tcp 1040 ------- 0 0.0 5.0 12 19
r 1.319755 2 0 ack 40 ------- 0 5.0 0.0 6 15
+ 1.319755 0 2 tcp 1040 ------- 0 0.0 5.0 13 20
- 1.319755 0 2 tcp 1040 ------- 0 0.0 5.0 13 20
+ 1.319755 0 2 tcp 1040 ------- 0 0.0 5.0 14 21
- 1.321419 0 2 tcp 1040 ------- 0 0.0 5.0 14 21
r 1.322325 2 3 tcp 1040 ------- 0 0.0 5.0 7 13
+ 1.322325 3 5 tcp 1040 ------- 0 0.0 5.0 7 13
- 1.322325 3 5 tcp 1040 ------- 0 0.0 5.0 7 13
- 1.323419 2 3 tcp 1040 ------- 0 0.0 5.0 10 17
r 1.323419 0 2 tcp 1040 ------- 0 0.0 5.0 13 20
+ 1.323419 2 3 tcp 1040 ------- 0 0.0 5.0 13 20
r 1.325083 0 2 tcp 1040 ------- 0 0.0 5.0 14 21
+ 1.325083 2 3 tcp 1040 ------- 0 0.0 5.0 14 21
r 1.325989 3 5 tcp 1040 ------- 0 0.0 5.0 7 13
+ 1.325989 5 3 ack 40 ------- 0 5.0 0.0 7 22
- 1.325989 5 3 ack 40 ------- 0 5.0 0.0 7 22
r 1.327872 2 3 tcp 1040 ------- 0 0.0 5.0 8 14
+ 1.327872 3 5 tcp 1040 ------- 0 0.0 5.0 8 14
- 1.327872 3 5 tcp 1040 ------- 0 0.0 5.0 8 14
r 1.328053 5 3 ack 40 ------- 0 5.0 0.0 7 22
+ 1.328053 3 2 ack 40 ------- 0 5.0 0.0 7 22
- 1.328053 3 2 ack 40 ------- 0 5.0 0.0 7 22
- 1.328965 2 3 tcp 1040 ------- 0 0.0 5.0 11 18
r 1.331536 3 5 tcp 1040 ------- 0 0.0 5.0 8 14
+ 1.331536 5 3 ack 40 ------- 0 5.0 0.0 8 23
- 1.331536 5 3 ack 40 ------- 0 5.0 0.0 8 23
r 1.333419 2 3 tcp 1040 ------- 0 0.0 5.0 9 16
+ 1.333419 3 5 tcp 1040 ------- 0 0.0 5.0 9 16
- 1.333419 3 5 tcp 1040 ------- 0 0.0 5.0 9 16
r 1.3336 5 3 ack 40 ------- 0 5.0 0.0 8 23
+ 1.3336 3 2 ack 40 ------- 0 5.0 0.0 8 23
- 1.3336 3 2 ack 40 ------- 0 5.0 0.0 8 23
- 1.334512 2 3 tcp 1040 ------- 0 0.0 5.0 12 19
r 1.337083 3 5 tcp 1040 ------- 0 0.0 5.0 9 16
+ 1.337083 5 3 ack 40 ------- 0 5.0 0.0 9 24
- 1.337083 5 3 ack 40 ------- 0 5.0 0.0 9 24
r 1.338267 3 2 ack 40 ------- 0 5.0 0.0 7 22
+ 1.338267 2 0 ack 40 ------- 0 5.0 0.0 7 22
- 1.338267 2 0 ack 40 ------- 0 5.0 0.0 7 22
r 1.338965 2 3 tcp 1040 ------- 0 0.0 5.0 10 17
+ 1.338965 3 5 tcp 1040 ------- 0 0.0 5.0 10 17
- 1.338965 3 5 tcp 1040 ------- 0 0.0 5.0 10 17
r 1.339147 5 3 ack 40 ------- 0 5.0 0.0 9 24
+ 1.339147 3 2 ack 40 ------- 0 5.0 0.0 9 24
- 1.339147 3 2 ack 40 ------- 0 5.0 0.0 9 24
- 1.340059 2 3 tcp 1040 ------- 0 0.0 5.0 13 20
r 1.340331 2 0 ack 40 ------- 0 5.0 0.0 7 22
+ 1.340331 0 2 tcp 1040 ------- 0 0.0 5.0 15 25
- 1.340331 0 2 tcp 1040 ------- 0 0.0 5.0 15 25
+ 1.340331 0 2 tcp 1040 ------- 0 0.0 5.0 16 26
- 1.341995 0 2 tcp 1040 ------- 0 0.0 5.0 16 26
r 1.342629 3 5 tcp 1040 ------- 0 0.0 5.0 10 17
+ 1.342629 5 3 ack 40 ------- 0 5.0 0.0 10 27
- 1.342629 5 3 ack 40 ------- 0 5.0 0.0 10 27
r 1.343813 3 2 ack 40 ------- 0 5.0 0.0 8 23
+ 1.343813 2 0 ack 40 ------- 0 5.0 0.0 8 23
- 1.343813 2 0 ack 40 ------- 0 5.0 0.0 8 23
r 1.343995 0 2 tcp 1040 ------- 0 0.0 5.0 15 25
+ 1.343995 2 3 tcp 1040 ------- 0 0.0 5.0 15 25
r 1.344512 2 3 tcp 1040 ------- 0 0.0 5.0 11 18
+ 1.344512 3 5 tcp 1040 ------- 0 0.0 5.0 11 18
- 1.344512 3 5 tcp 1040 ------- 0 0.0 5.0 11 18
r 1.344693 5 3 ack 40 ------- 0 5.0 0.0 10 27
+ 1.344693 3 2 ack 40 ------- 0 5.0 0.0 10 27
- 1.344693 3 2 ack 40 ------- 0 5.0 0.0 10 27
- 1.345605 2 3 tcp 1040 ------- 0 0.0 5.0 14 21
r 1.345659 0 2 tcp 1040 ------- 0 0.0 5.0 16 26
+ 1.345659 2 3 tcp 1040 ------- 0 0.0 5.0 16 26
r 1.345877 2 0 ack 40 ------- 0 5.0 0.0 8 23
+ 1.345877 0 2 tcp 1040 ------- 0 0.0 5.0 17 28
- 1.345877 0 2 tcp 1040 ------- 0 0.0 5.0 17 28
+ 1.345877 0 2 tcp 1040 ------- 0 0.0 5.0 18 29
- 1.347541 0 2 tcp 1040 ------- 0 0.0 5.0 18 29
r 1.348176 3 5 tcp 1040 ------- 0 0.0 5.0 11 18
+ 1.348176 5 3 ack 40 ------- 0 5.0 0.0 11 30
- 1.348176 5 3 ack 40 ------- 0 5.0 0.0 11 30
r 1.34936 3 2 ack 40 ------- 0 5.0 0.0 9 24
+ 1.34936 2 0 ack 40 ------- 0 5.0 0.0 9 24
- 1.34936 2 0 ack 40 ------- 0 5.0 0.0 9 24
r 1.349541 0 2 tcp 1040 ------- 0 0.0 5.0 17 28
+ 1.349541 2 3 tcp 1040 ------- 0 0.0 5.0 17 28
r 1.350059 2 3 tcp 1040 ------- 0 0.0 5.0 12 19
+ 1.350059 3 5 tcp 1040 ------- 0 0.0 5.0 12 19
- 1.350059 3 5 tcp 1040 ------- 0 0.0 5.0 12 19
r 1.35024 5 3 ack 40 ------- 0 5.0 0.0 11 30
+ 1.35024 3 2 ack 40 ------- 0 5.0 0.0 11 30
- 1.35024 3 2 ack 40 ------- 0 5.0 0.0 11 30
- 1.351152 2 3 tcp 1040 ------- 0 0.0 5.0 15 25
r 1.351205 0 2 tcp 1040 ------- 0 0.0 5.0 18 29
+ 1.351205 2 3 tcp 1040 ------- 0 0.0 5.0 18 29
r 1.351424 2 0 ack 40 ------- 0 5.0 0.0 9 24
+ 1.351424 0 2 tcp 1040 ------- 0 0.0 5.0 19 31
- 1.351424 0 2 tcp 1040 ------- 0 0.0 5.0 19 31
+ 1.351424 0 2 tcp 1040 ------- 0 0.0 5.0 20 32
- 1.353088 0 2 tcp 1040 ------- 0 0.0 5.0 20 32
r 1.353723 3 5 tcp 1040 ------- 0 0.0 5.0 12 19
+ 1.353723 5 3 ack 40 ------- 0 5.0 0.0 12 33
- 1.353723 5 3 ack 40 ------- 0 5.0 0.0 12 33
r 1.354907 3 2 ack 40 ------- 0 5.0 0.0 10 27
+ 1.354907 2 0 ack 40 ------- 0 5.0 0.0 10 27
- 1.354907 2 0 ack 40 ------- 0 5.0 0.0 10 27
r 1.355088 0 2 tcp 1040 ------- 0 0.0 5.0 19 31
+ 1.355088 2 3 tcp 1040 ------- 0 0.0 5.0 19 31
r 1.355605 2 3 tcp 1040 ------- 0 0.0 5.0 13 20
+ 1.355605 3 5 tcp 1040 ------- 0 0.0 5.0 13 20
- 1.355605 3 5 tcp 1040 ------- 0 0.0 5.0 13 20
r 1.355787 5 3 ack 40 ------- 0 5.0 0.0 12 33
+ 1.355787 3 2 ack 40 ------- 0 5.0 0.0 12 33
- 1.355787 3 2 ack 40 ------- 0 5.0 0.0 12 33
- 1.356699 2 3 tcp 1040 ------- 0 0.0 5.0 16 26
r 1.356752 0 2 tcp 1040 ------- 0 0.0 5.0 20 32
+ 1.356752 2 3 tcp 1040 ------- 0 0.0 5.0 20 32
r 1.356971 2 0 ack 40 ------- 0 5.0 0.0 10 27
+ 1.356971 0 2 tcp 1040 ------- 0 0.0 5.0 21 34
- 1.356971 0 2 tcp 1040 ------- 0 0.0 5.0 21 34
+ 1.356971 0 2 tcp 1040 ------- 0 0.0 5.0 22 35
- 1.358635 0 2 tcp 1040 ------- 0 0.0 5.0 22 35
r 1.359269 3 5 tcp 1040 ------- 0 0.0 5.0 13 20
+ 1.359269 5 3 ack 40 ------- 0 5.0 0.0 13 36
- 1.359269 5 3 ack 40 ------- 0 5.0 0.0 13 36
r 1.360453 3 2 ack 40 ------- 0 5.0 0.0 11 30
+ 1.360453 2 0 ack 40 ------- 0 5.0 0.0 11 30
- 1.360453 2 0 ack 40 ------- 0 5.0 0.0 11 30
r 1.360635 0 2 tcp 1040 ------- 0 0.0 5.0 21 34
+ 1.360635 2 3 tcp 1040 ------- 0 0.0 5.0 21 34
r 1.361152 2 3 tcp 1040 ------- 0 0.0 5.0 14 21
+ 1.361152 3 5 tcp 1040 ------- 0 0.0 5.0 14 21
- 1.361152 3 5 tcp 1040 ------- 0 0.0 5.0 14 21
r 1.361333 5 3 ack 40 ------- 0 5.0 0.0 13 36
+ 1.361333 3 2 ack 40 ------- 0 5.0 0.0 13 36
- 1.361333 3 2 ack 40 ------- 0 5.0 0.0 13 36
- 1.362245 2 3 tcp 1040 ------- 0 0.0 5.0 17 28
r 1.362299 0 2 tcp 1040 ------- 0 0.0 5.0 22 35
+ 1.362299 2 3 tcp 1040 ------- 0 0.0 5.0 22 35
r 1.362517 2 0 ack 40 ------- 0 5.0 0.0 11 30
+ 1.362517 0 2 tcp 1040 ------- 0 0.0 5.0 23 37
- 1.362517 0 2 tcp 1040 ------- 0 0.0 5.0 23 37
+ 1.362517 0 2 tcp 1040 ------- 0 0.0 5.0 24 38
- 1.364181 0 2 tcp 1040 ------- 0 0.0 5.0 24 38
r 1.364816 3 5 tcp 1040 ------- 0 0.0 5.0 14 21
+ 1.364816 5 3 ack 40 ------- 0 5.0 0.0 14 39
- 1.364816 5 3 ack 40 ------- 0 5.0 0.0 14 39
r 1.366 3 2 ack 40 ------- 0 5.0 0.0 12 33
+ 1.366 2 0 ack 40 ------- 0 5.0 0.0 12 33
- 1.366 2 0 ack 40 ------- 0 5.0 0.0 12 33
r 1.366181 0 2 tcp 1040 ------- 0 0.0 5.0 23 37
+ 1.366181 2 3 tcp 1040 ------- 0 0.0 5.0 23 37
r 1.366699 2 3 tcp 1040 ------- 0 0.0 5.0 15 25
+ 1.366699 3 5 tcp 1040 ------- 0 0.0 5.0 15 25
- 1.366699 3 5 tcp 1040 ------- 0 0.0 5.0 15 25
r 1.36688 5 3 ack 40 ------- 0 5.0 0.0 14 39
+ 1.36688 3 2 ack 40 ------- 0 5.0 0.0 14 39
- 1.36688 3 2 ack 40 ------- 0 5.0 0.0 14 39
- 1.367792 2 3 tcp 1040 ------- 0 0.0 5.0 18 29
r 1.367845 0 2 tcp 1040 ------- 0 0.0 5.0 24 38
+ 1.367845 2 3 tcp 1040 ------- 0 0.0 5.0 24 38
r 1.368064 2 0 ack 40 ------- 0 5.0 0.0 12 33
+ 1.368064 0 2 tcp 1040 ------- 0 0.0 5.0 25 40
- 1.368064 0 2 tcp 1040 ------- 0 0.0 5.0 25 40
+ 1.368064 0 2 tcp 1040 ------- 0 0.0 5.0 26 41
- 1.369728 0 2 tcp 1040 ------- 0 0.0 5.0 26 41
r 1.370363 3 5 tcp 1040 ------- 0 0.0 5.0 15 25
+ 1.370363 5 3 ack 40 ------- 0 5.0 0.0 15 42
- 1.370363 5 3 ack 40 ------- 0 5.0 0.0 15 42
r 1.371547 3 2 ack 40 ------- 0 5.0 0.0 13 36
+ 1.371547 2 0 ack 40 ------- 0 5.0 0.0 13 36
- 1.371547 2 0 ack 40 ------- 0 5.0 0.0 13 36
r 1.371728 0 2 tcp 1040 ------- 0 0.0 5.0 25 40
+ 1.371728 2 3 tcp 1040 ------- 0 0.0 5.0 25 40
r 1.372245 2 3 tcp 1040 ------- 0 0.0 5.0 16 26
+ 1.372245 3 5 tcp 1040 ------- 0 0.0 5.0 16 26
- 1.372245 3 5 tcp 1040 ------- 0 0.0 5.0 16 26
r 1.372427 5 3 ack 40 ------- 0 5.0 0.0 15 42
+ 1.372427 3 2 ack 40 ------- 0 5.0 0.0 15 42
- 1.372427 3 2 ack 40 ------- 0 5.0 0.0 15 42
- 1.373339 2 3 tcp 1040 ------- 0 0.0 5.0 19 31
r 1.373392 0 2 tcp 1040 ------- 0 0.0 5.0 26 41
+ 1.373392 2 3 tcp 1040 ------- 0 0.0 5.0 26 41
r 1.373611 2 0 ack 40 ------- 0 5.0 0.0 13 36
+ 1.373611 0 2 tcp 1040 ------- 0 0.0 5.0 27 43
- 1.373611 0 2 tcp 1040 ------- 0 0.0 5.0 27 43
+ 1.373611 0 2 tcp 1040 ------- 0 0.0 5.0 28 44
- 1.375275 0 2 tcp 1040 ------- 0 0.0 5.0 28 44
r 1.375909 3 5 tcp 1040 ------- 0 0.0 5.0 16 26
+ 1.375909 5 3 ack 40 ------- 0 5.0 0.0 16 45
- 1.375909 5 3 ack 40 ------- 0 5.0 0.0 16 45
r 1.377093 3 2 ack 40 ------- 0 5.0 0.0 14 39
+ 1.377093 2 0 ack 40 ------- 0 5.0 0.0 14 39
- 1.377093 2 0 ack 40 ------- 0 5.0 0.0 14 39
r 1.377275 0 2 tcp 1040 ------- 0 0.0 5.0 27 43
+ 1.377275 2 3 tcp 1040 ------- 0 0.0 5.0 27 43
r 1.377792 2 3 tcp 1040 ------- 0 0.0 5.0 17 28
+ 1.377792 3 5 tcp 1040 ------- 0 0.0 5.0 17 28
- 1.377792 3 5 tcp 1040 ------- 0 0.0 5.0 17 28
r 1.377973 5 3 ack 40 ------- 0 5.0 0.0 16 45
+ 1.377973 3 2 ack 40 ------- 0 5.0 0.0 16 45
- 1.377973 3 2 ack 40 ------- 0 5.0 0.0 16 45
- 1.378885 2 3 tcp 1040 ------- 0 0.0 5.0 20 32
r 1.378939 0 2 tcp 1040 ------- 0 0.0 5.0 28 44
+ 1.378939 2 3 tcp 1040 ------- 0 0.0 5.0 28 44
r 1.379157 2 0 ack 40 ------- 0 5.0 0.0 14 39
+ 1.379157 0 2 tcp 1040 ------- 0 0.0 5.0 29 46
- 1.379157 0 2 tcp 1040 ------- 0 0.0 5.0 29 46
+ 1.379157 0 2 tcp 1040 ------- 0 0.0 5.0 30 47
- 1.380821 0 2 tcp 1040 ------- 0 0.0 5.0 30 47
r 1.381456 3 5 tcp 1040 ------- 0 0.0 5.0 17 28
+ 1.381456 5 3 ack 40 ------- 0 5.0 0.0 17 48
- 1.381456 5 3 ack 40 ------- 0 5.0 0.0 17 48
r 1.38264 3 2 ack 40 ------- 0 5.0 0.0 15 42
+ 1.38264 2 0 ack 40 ------- 0 5.0 0.0 15 42
- 1.38264 2 0 ack 40 ------- 0 5.0 0.0 15 42
r 1.382821 0 2 tcp 1040 ------- 0 0.0 5.0 29 46
+ 1.382821 2 3 tcp 1040 ------- 0 0.0 5.0 29 46
r 1.383339 2 3 tcp 1040 ------- 0 0.0 5.0 18 29
+ 1.383339 3 5 tcp 1040 ------- 0 0.0 5.0 18 29
- 1.383339 3 5 tcp 1040 ------- 0 0.0 5.0 18 29
r 1.38352 5 3 ack 40 ------- 0 5.0 0.0 17 48
+ 1.38352 3 2 ack 40 ------- 0 5.0 0.0 17 48
- 1.38352 3 2 ack 40 ------- 0 5.0 0.0 17 48
- 1.384432 2 3 tcp 1040 ------- 0 0.0 5.0 21 34
r 1.384485 0 2 tcp 1040 ------- 0 0.0 5.0 30 47
+ 1.384485 2 3 tcp 1040 ------- 0 0.0 5.0 30 47
r 1.384704 2 0 ack 40 ------- 0 5.0 0.0 15 42
+ 1.384704 0 2 tcp 1040 ------- 0 0.0 5.0 31 49
- 1.384704 0 2 tcp 1040 ------- 0 0.0 5.0 31 49
+ 1.384704 0 2 tcp 1040 ------- 0 0.0 5.0 32 50
- 1.386368 0 2 tcp 1040 ------- 0 0.0 5.0 32 50
r 1.387003 3 5 tcp 1040 ------- 0 0.0 5.0 18 29
+ 1.387003 5 3 ack 40 ------- 0 5.0 0.0 18 51
- 1.387003 5 3 ack 40 ------- 0 5.0 0.0 18 51
r 1.388187 3 2 ack 40 ------- 0 5.0 0.0 16 45
+ 1.388187 2 0 ack 40 ------- 0 5.0 0.0 16 45
- 1.388187 2 0 ack 40 ------- 0 5.0 0.0 16 45
r 1.388368 0 2 tcp 1040 ------- 0 0.0 5.0 31 49
+ 1.388368 2 3 tcp 1040 ------- 0 0.0 5.0 31 49
r 1.388885 2 3 tcp 1040 ------- 0 0.0 5.0 19 31
+ 1.388885 3 5 tcp 1040 ------- 0 0.0 5.0 19 31
- 1.388885 3 5 tcp 1040 ------- 0 0.0 5.0 19 31
r 1.389067 5 3 ack 40 ------- 0 5.0 0.0 18 51
+ 1.389067 3 2 ack 40 ------- 0 5.0 0.0 18 51
- 1.389067 3 2 ack 40 ------- 0 5.0 0.0 18 51
- 1.389979 2 3 tcp 1040 ------- 0 0.0 5.0 22 35
r 1.390032 0 2 tcp 1040 ------- 0 0.0 5.0 32 50
+ 1.390032 2 3 tcp 1040 ------- 0 0.0 5.0 32 50
r 1.390251 2 0 ack 40 ------- 0 5.0 0.0 16 45
+ 1.390251 0 2 tcp 1040 ------- 0 0.0 5.0 33 52
- 1.390251 0 2 tcp 1040 ------- 0 0.0 5.0 33 52
+ 1.390251 0 2 tcp 1040 ------- 0 0.0 5.0 34 53
- 1.391915 0 2 tcp 1040 ------- 0 0.0 5.0 34 53
r 1.392549 3 5 tcp 1040 ------- 0 0.0 5.0 19 31
+ 1.392549 5 3 ack 40 ------- 0 5.0 0.0 19 54
- 1.392549 5 3 ack 40 ------- 0 5.0 0.0 19 54
r 1.393733 3 2 ack 40 ------- 0 5.0 0.0 17 48
+ 1.393733 2 0 ack 40 ------- 0 5.0 0.0 17 48
- 1.393733 2 0 ack 40 ------- 0 5.0 0.0 17 48
r 1.393915 0 2 tcp 1040 ------- 0 0.0 5.0 33 52
+ 1.393915 2 3 tcp 1040 ------- 0 0.0 5.0 33 52
r 1.394432 2 3 tcp 1040 ------- 0 0.0 5.0 20 32
+ 1.394432 3 5 tcp 1040 ------- 0 0.0 5.0 20 32
- 1.394432 3 5 tcp 1040 ------- 0 0.0 5.0 20 32
r 1.394613 5 3 ack 40 ------- 0 5.0 0.0 19 54
+ 1.394613 3 2 ack 40 ------- 0 5.0 0.0 19 54
- 1.394613 3 2 ack 40 ------- 0 5.0 0.0 19 54
- 1.395525 2 3 tcp 1040 ------- 0 0.0 5.0 23 37
r 1.395579 0 2 tcp 1040 ------- 0 0.0 5.0 34 53
+ 1.395579 2 3 tcp 1040 ------- 0 0.0 5.0 34 53
r 1.395797 2 0 ack 40 ------- 0 5.0 0.0 17 48
+ 1.395797 0 2 tcp 1040 ------- 0 0.0 5.0 35 55
- 1.395797 0 2 tcp 1040 ------- 0 0.0 5.0 35 55
+ 1.395797 0 2 tcp 1040 ------- 0 0.0 5.0 36 56
- 1.397461 0 2 tcp 1040 ------- 0 0.0 5.0 36 56
r 1.398096 3 5 tcp 1040 ------- 0 0.0 5.0 20 32
+ 1.398096 5 3 ack 40 ------- 0 5.0 0.0 20 57
- 1.398096 5 3 ack 40 ------- 0 5.0 0.0 20 57
r 1.39928 3 2 ack 40 ------- 0 5.0 0.0 18 51
+ 1.39928 2 0 ack 40 ------- 0 5.0 0.0 18 51
- 1.39928 2 0 ack 40 ------- 0 5.0 0.0 18 51
r 1.399461 0 2 tcp 1040 ------- 0 0.0 5.0 35 55
+ 1.399461 2 3 tcp 1040 ------- 0 0.0 5.0 35 55
r 1.399979 2 3 tcp 1040 ------- 0 0.0 5.0 21 34
+ 1.399979 3 5 tcp 1040 ------- 0 0.0 5.0 21 34
- 1.399979 3 5 tcp 1040 ------- 0 0.0 5.0 21 34
r 1.40016 5 3 ack 40 ------- 0 5.0 0.0 20 57
+ 1.40016 3 2 ack 40 ------- 0 5.0 0.0 20 57
- 1.40016 3 2 ack 40 ------- 0 5.0 0.0 20 57
- 1.401072 2 3 tcp 1040 ------- 0 0.0 5.0 24 38
r 1.401125 0 2 tcp 1040 ------- 0 0.0 5.0 36 56
+ 1.401125 2 3 tcp 1040 ------- 0 0.0 5.0 36 56
r 1.401344 2 0 ack 40 ------- 0 5.0 0.0 18 51
+ 1.401344 0 2 tcp 1040 ------- 0 0.0 5.0 37 58
- 1.401344 0 2 tcp 1040 ------- 0 0.0 5.0 37 58
+ 1.401344 0 2 tcp 1040 ------- 0 0.0 5.0 38 59
- 1.403008 0 2 tcp 1040 ------- 0 0.0 5.0 38 59
r 1.403643 3 5 tcp 1040 ------- 0 0.0 5.0 21 34
+ 1.403643 5 3 ack 40 ------- 0 5.0 0.0 21 60
- 1.403643 5 3 ack 40 ------- 0 5.0 0.0 21 60
r 1.404827 3 2 ack 40 ------- 0 5.0 0.0 19 54
+ 1.404827 2 0 ack 40 ------- 0 5.0 0.0 19 54
- 1.404827 2 0 ack 40 ------- 0 5.0 0.0 19 54
r 1.405008 0 2 tcp 1040 ------- 0 0.0 5.0 37 58
+ 1.405008 2 3 tcp 1040 ------- 0 0.0 5.0 37 58
r 1.405525 2 3 tcp 1040 ------- 0 0.0 5.0 22 35
+ 1.405525 3 5 tcp 1040 ------- 0 0.0 5.0 22 35
- 1.405525 3 5 tcp 1040 ------- 0 0.0 5.0 22 35
r 1.405707 5 3 ack 40 ------- 0 5.0 0.0 21 60
+ 1.405707 3 2 ack 40 ------- 0 5.0 0.0 21 60
- 1.405707 3 2 ack 40 ------- 0 5.0 0.0 21 60
- 1.406619 2 3 tcp 1040 ------- 0 0.0 5.0 25 40
r 1.406672 0 2 tcp 1040 ------- 0 0.0 5.0 38 59
+ 1.406672 2 3 tcp 1040 ------- 0 0.0 5.0 38 59
r 1.406891 2 0 ack 40 ------- 0 5.0 0.0 19 54
+ 1.406891 0 2 tcp 1040 ------- 0 0.0 5.0 39 61
- 1.406891 0 2 tcp 1040 ------- 0 0.0 5.0 39 61
r 1.409189 3 5 tcp 1040 ------- 0 0.0 5.0 22 35
+ 1.409189 5 3 ack 40 ------- 0 5.0 0.0 22 62
- 1.409189 5 3 ack 40 ------- 0 5.0 0.0 22 62
r 1.410373 3 2 ack 40 ------- 0 5.0 0.0 20 57
+ 1.410373 2 0 ack 40 ------- 0 5.0 0.0 20 57
- 1.410373 2 0 ack 40 ------- 0 5.0 0.0 20 57
r 1.410555 0 2 tcp 1040 ------- 0 0.0 5.0 39 61
+ 1.410555 2 3 tcp 1040 ------- 0 0.0 5.0 39 61
r 1.411072 2 3 tcp 1040 ------- 0 0.0 5.0 23 37
+ 1.411072 3 5 tcp 1040 ------- 0 0.0 5.0 23 37
- 1.411072 3 5 tcp 1040 ------- 0 0.0 5.0 23 37
r 1.411253 5 3 ack 40 ------- 0 5.0 0.0 22 62
+ 1.411253 3 2 ack 40 ------- 0 5.0 0.0 22 62
- 1.411253 3 2 ack 40 ------- 0 5.0 0.0 22 62
- 1.412165 2 3 tcp 1040 ------- 0 0.0 5.0 26 41
r 1.412437 2 0 ack 40 ------- 0 5.0 0.0 20 57
+ 1.412437 0 2 tcp 1040 ------- 0 0.0 5.0 40 63
- 1.412437 0 2 tcp 1040 ------- 0 0.0 5.0 40 63
r 1.414736 3 5 tcp 1040 ------- 0 0.0 5.0 23 37
+ 1.414736 5 3 ack 40 ------- 0 5.0 0.0 23 64
- 1.414736 5 3 ack 40 ------- 0 5.0 0.0 23 64
r 1.41592 3 2 ack 40 ------- 0 5.0 0.0 21 60
+ 1.41592 2 0 ack 40 ------- 0 5.0 0.0 21 60
- 1.41592 2 0 ack 40 ------- 0 5.0 0.0 21 60
r 1.416101 0 2 tcp 1040 ------- 0 0.0 5.0 40 63
+ 1.416101 2 3 tcp 1040 ------- 0 0.0 5.0 40 63
r 1.416619 2 3 tcp 1040 ------- 0 0.0 5.0 24 38
+ 1.416619 3 5 tcp 1040 ------- 0 0.0 5.0 24 38
- 1.416619 3 5 tcp 1040 ------- 0 0.0 5.0 24 38
r 1.4168 5 3 ack 40 ------- 0 5.0 0.0 23 64
+ 1.4168 3 2 ack 40 ------- 0 5.0 0.0 23 64
- 1.4168 3 2 ack 40 ------- 0 5.0 0.0 23 64
- 1.417712 2 3 tcp 1040 ------- 0 0.0 5.0 27 43
r 1.417984 2 0 ack 40 ------- 0 5.0 0.0 21 60
+ 1.417984 0 2 tcp 1040 ------- 0 0.0 5.0 41 65
- 1.417984 0 2 tcp 1040 ------- 0 0.0 5.0 41 65
r 1.420283 3 5 tcp 1040 ------- 0 0.0 5.0 24 38
+ 1.420283 5 3 ack 40 ------- 0 5.0 0.0 24 66
- 1.420283 5 3 ack 40 ------- 0 5.0 0.0 24 66
r 1.421467 3 2 ack 40 ------- 0 5.0 0.0 22 62
+ 1.421467 2 0 ack 40 ------- 0 5.0 0.0 22 62
- 1.421467 2 0 ack 40 ------- 0 5.0 0.0 22 62
r 1.421648 0 2 tcp 1040 ------- 0 0.0 5.0 41 65
+ 1.421648 2 3 tcp 1040 ------- 0 0.0 5.0 41 65
r 1.422165 2 3 tcp 1040 ------- 0 0.0 5.0 25 40
+ 1.422165 3 5 tcp 1040 ------- 0 0.0 5.0 25 40
- 1.422165 3 5 tcp 1040 ------- 0 0.0 5.0 25 40
r 1.422347 5 3 ack 40 ------- 0 5.0 0.0 24 66
+ 1.422347 3 2 ack 40 ------- 0 5.0 0.0 24 66
- 1.422347 3 2 ack 40 ------- 0 5.0 0.0 24 66
- 1.423259 2 3 tcp 1040 ------- 0 0.0 5.0 28 44
r 1.423531 2 0 ack 40 ------- 0 5.0 0.0 22 62
+ 1.423531 0 2 tcp 1040 ------- 0 0.0 5.0 42 67
- 1.423531 0 2 tcp 1040 ------- 0 0.0 5.0 42 67
r 1.425829 3 5 tcp 1040 ------- 0 0.0 5.0 25 40
+ 1.425829 5 3 ack 40 ------- 0 5.0 0.0 25 68
- 1.425829 5 3 ack 40 ------- 0 5.0 0.0 25 68
r 1.427013 3 2 ack 40 ------- 0 5.0 0.0 23 64
+ 1.427013 2 0 ack 40 ------- 0 5.0 0.0 23 64
- 1.427013 2 0 ack 40 ------- 0 5.0 0.0 23 64
r 1.427195 0 2 tcp 1040 ------- 0 0.0 5.0 42 67
+ 1.427195 2 3 tcp 1040 ------- 0 0.0 5.0 42 67
r 1.427712 2 3 tcp 1040 ------- 0 0.0 5.0 26 41
+ 1.427712 3 5 tcp 1040 ------- 0 0.0 5.0 26 41
- 1.427712 3 5 tcp 1040 ------- 0 0.0 5.0 26 41
r 1.427893 5 3 ack 40 ------- 0 5.0 0.0 25 68
+ 1.427893 3 2 ack 40 ------- 0 5.0 0.0 25 68
- 1.427893 3 2 ack 40 ------- 0 5.0 0.0 25 68
- 1.428805 2 3 tcp 1040 ------- 0 0.0 5.0 29 46
r 1.429077 2 0 ack 40 ------- 0 5.0 0.0 23 64
+ 1.429077 0 2 tcp 1040 ------- 0 0.0 5.0 43 69
- 1.429077 0 2 tcp 1040 ------- 0 0.0 5.0 43 69
r 1.431376 3 5 tcp 1040 ------- 0 0.0 5.0 26 41
+ 1.431376 5 3 ack 40 ------- 0 5.0 0.0 26 70
- 1.431376 5 3 ack 40 ------- 0 5.0 0.0 26 70
r 1.43256 3 2 ack 40 ------- 0 5.0 0.0 24 66
+ 1.43256 2 0 ack 40 ------- 0 5.0 0.0 24 66
- 1.43256 2 0 ack 40 ------- 0 5.0 0.0 24 66
r 1.432741 0 2 tcp 1040 ------- 0 0.0 5.0 43 69
+ 1.432741 2 3 tcp 1040 ------- 0 0.0 5.0 43 69
r 1.433259 2 3 tcp 1040 ------- 0 0.0 5.0 27 43
+ 1.433259 3 5 tcp 1040 ------- 0 0.0 5.0 27 43
- 1.433259 3 5 tcp 1040 ------- 0 0.0 5.0 27 43
r 1.43344 5 3 ack 40 ------- 0 5.0 0.0 26 70
+ 1.43344 3 2 ack 40 ------- 0 5.0 0.0 26 70
- 1.43344 3 2 ack 40 ------- 0 5.0 0.0 26 70
- 1.434352 2 3 tcp 1040 ------- 0 0.0 5.0 30 47
r 1.434624 2 0 ack 40 ------- 0 5.0 0.0 24 66
+ 1.434624 0 2 tcp 1040 ------- 0 0.0 5.0 44 71
- 1.434624 0 2 tcp 1040 ------- 0 0.0 5.0 44 71
r 1.436923 3 5 tcp 1040 ------- 0 0.0 5.0 27 43
+ 1.436923 5 3 ack 40 ------- 0 5.0 0.0 27 72
- 1.436923 5 3 ack 40 ------- 0 5.0 0.0 27 72
r 1.438107 3 2 ack 40 ------- 0 5.0 0.0 25 68
+ 1.438107 2 0 ack 40 ------- 0 5.0 0.0 25 68
- 1.438107 2 0 ack 40 ------- 0 5.0 0.0 25 68
r 1.438288 0 2 tcp 1040 ------- 0 0.0 5.0 44 71
+ 1.438288 2 3 tcp 1040 ------- 0 0.0 5.0 44 71
r 1.438805 2 3 tcp 1040 ------- 0 0.0 5.0 28 44
+ 1.438805 3 5 tcp 1040 ------- 0 0.0 5.0 28 44
- 1.438805 3 5 tcp 1040 ------- 0 0.0 5.0 28 44
r 1.438987 5 3 ack 40 ------- 0 5.0 0.0 27 72
+ 1.438987 3 2 ack 40 ------- 0 5.0 0.0 27 72
- 1.438987 3 2 ack 40 ------- 0 5.0 0.0 27 72
- 1.439899 2 3 tcp 1040 ------- 0 0.0 5.0 31 49
r 1.440171 2 0 ack 40 ------- 0 5.0 0.0 25 68
+ 1.440171 0 2 tcp 1040 ------- 0 0.0 5.0 45 73
- 1.440171 0 2 tcp 1040 ------- 0 0.0 5.0 45 73
r 1.442469 3 5 tcp 1040 ------- 0 0.0 5.0 28 44
+ 1.442469 5 3 ack 40 ------- 0 5.0 0.0 28 74
- 1.442469 5 3 ack 40 ------- 0 5.0 0.0 28 74
r 1.443653 3 2 ack 40 ------- 0 5.0 0.0 26 70
+ 1.443653 2 0 ack 40 ------- 0 5.0 0.0 26 70
- 1.443653 2 0 ack 40 ------- 0 5.0 0.0 26 70
r 1.443835 0 2 tcp 1040 ------- 0 0.0 5.0 45 73
+ 1.443835 2 3 tcp 1040 ------- 0 0.0 5.0 45 73
r 1.444352 2 3 tcp 1040 ------- 0 0.0 5.0 29 46
+ 1.444352 3 5 tcp 1040 ------- 0 0.0 5.0 29 46
- 1.444352 3 5 tcp 1040 ------- 0 0.0 5.0 29 46
r 1.444533 5 3 ack 40 ------- 0 5.0 0.0 28 74
+ 1.444533 3 2 ack 40 ------- 0 5.0 0.0 28 74
- 1.444533 3 2 ack 40 ------- 0 5.0 0.0 28 74
- 1.445445 2 3 tcp 1040 ------- 0 0.0 5.0 32 50
r 1.445717 2 0 ack 40 ------- 0 5.0 0.0 26 70
+ 1.445717 0 2 tcp 1040 ------- 0 0.0 5.0 46 75
- 1.445717 0 2 tcp 1040 ------- 0 0.0 5.0 46 75
r 1.448016 3 5 tcp 1040 ------- 0 0.0 5.0 29 46
+ 1.448016 5 3 ack 40 ------- 0 5.0 0.0 29 76
- 1.448016 5 3 ack 40 ------- 0 5.0 0.0 29 76
r 1.4492 3 2 ack 40 ------- 0 5.0 0.0 27 72
+ 1.4492 2 0 ack 40 ------- 0 5.0 0.0 27 72
- 1.4492 2 0 ack 40 ------- 0 5.0 0.0 27 72
r 1.449381 0 2 tcp 1040 ------- 0 0.0 5.0 46 75
+ 1.449381 2 3 tcp 1040 ------- 0 0.0 5.0 46 75
r 1.449899 2 3 tcp 1040 ------- 0 0.0 5.0 30 47
+ 1.449899 3 5 tcp 1040 ------- 0 0.0 5.0 30 47
- 1.449899 3 5 tcp 1040 ------- 0 0.0 5.0 30 47
r 1.45008 5 3 ack 40 ------- 0 5.0 0.0 29 76
+ 1.45008 3 2 ack 40 ------- 0 5.0 0.0 29 76
- 1.45008 3 2 ack 40 ------- 0 5.0 0.0 29 76
- 1.450992 2 3 tcp 1040 ------- 0 0.0 5.0 33 52
r 1.451264 2 0 ack 40 ------- 0 5.0 0.0 27 72
+ 1.451264 0 2 tcp 1040 ------- 0 0.0 5.0 47 77
- 1.451264 0 2 tcp 1040 ------- 0 0.0 5.0 47 77
r 1.453563 3 5 tcp 1040 ------- 0 0.0 5.0 30 47
+ 1.453563 5 3 ack 40 ------- 0 5.0 0.0 30 78
- 1.453563 5 3 ack 40 ------- 0 5.0 0.0 30 78
r 1.454747 3 2 ack 40 ------- 0 5.0 0.0 28 74
+ 1.454747 2 0 ack 40 ------- 0 5.0 0.0 28 74
- 1.454747 2 0 ack 40 ------- 0 5.0 0.0 28 74
r 1.454928 0 2 tcp 1040 ------- 0 0.0 5.0 47 77
+ 1.454928 2 3 tcp 1040 ------- 0 0.0 5.0 47 77
r 1.455445 2 3 tcp 1040 ------- 0 0.0 5.0 31 49
+ 1.455445 3 5 tcp 1040 ------- 0 0.0 5.0 31 49
- 1.455445 3 5 tcp 1040 ------- 0 0.0 5.0 31 49
r 1.455627 5 3 ack 40 ------- 0 5.0 0.0 30 78
+ 1.455627 3 2 ack 40 ------- 0 5.0 0.0 30 78
- 1.455627 3 2 ack 40 ------- 0 5.0 0.0 30 78
- 1.456539 2 3 tcp 1040 ------- 0 0.0 5.0 34 53
r 1.456811 2 0 ack 40 ------- 0 5.0 0.0 28 74
+ 1.456811 0 2 tcp 1040 ------- 0 0.0 5.0 48 79
- 1.456811 0 2 tcp 1040 ------- 0 0.0 5.0 48 79
r 1.459109 3 5 tcp 1040 ------- 0 0.0 5.0 31 49
+ 1.459109 5 3 ack 40 ------- 0 5.0 0.0 31 80
- 1.459109 5 3 ack 40 ------- 0 5.0 0.0 31 80
r 1.460293 3 2 ack 40 ------- 0 5.0 0.0 29 76
+ 1.460293 2 0 ack 40 ------- 0 5.0 0.0 29 76
- 1.460293 2 0 ack 40 ------- 0 5.0 0.0 29 76
r 1.460475 0 2 tcp 1040 ------- 0 0.0 5.0 48 79
+ 1.460475 2 3 tcp 1040 ------- 0 0.0 5.0 48 79
r 1.460992 2 3 tcp 1040 ------- 0 0.0 5.0 32 50
+ 1.460992 3 5 tcp 1040 ------- 0 0.0 5.0 32 50
- 1.460992 3 5 tcp 1040 ------- 0 0.0 5.0 32 50
r 1.461173 5 3 ack 40 ------- 0 5.0 0.0 31 80
+ 1.461173 3 2 ack 40 ------- 0 5.0 0.0 31 80
- 1.461173 3 2 ack 40 ------- 0 5.0 0.0 31 80
- 1.462085 2 3 tcp 1040 ------- 0 0.0 5.0 35 55
r 1.462357 2 0 ack 40 ------- 0 5.0 0.0 29 76
+ 1.462357 0 2 tcp 1040 ------- 0 0.0 5.0 49 81