V -t * -v 1.0a5 -a 0
A -t * -n 1 -p 0 -o 0x7fffffff -c 30 -a 1
A -t * -h 1 -m 1073741823 -s 0
n -t * -a 4 -s 4 -S UP -v circle -c black -i black
n -t * -a 0 -s 0 -S UP -v circle -c black -i black
n -t * -a 5 -s 5 -S UP -v circle -c black -i black
n -t * -a 1 -s 1 -S UP -v circle -c black -i black
n -t * -a 2 -s 2 -S UP -v circle -c black -i black
n -t * -a 3 -s 3 -S UP -v circle -c black -i black
l -t * -s 0 -d 2 -S UP -r 5000000 -D 0.002 -c black
l -t * -s 1 -d 2 -S UP -r 5000000 -D 0.002 -c black
l -t * -s 2 -d 3 -S UP -r 1500000 -D 0.01 -c black
l -t * -s 3 -d 5 -S UP -r 5000000 -D 0.002 -c black
l -t * -s 3 -d 4 -S UP -r 5000000 -D 0.002 -c black
+ -t 1.2 -s 0 -d 2 -p tcp -e 40 -c 0 -i 0 -a 0 -x {0.0 5.0 0 ------- null}
- -t 1.2 -s 0 -d 2 -p tcp -e 40 -c 0 -i 0 -a 0 -x {0.0 5.0 0 ------- null}
h -t 1.2 -s 0 -d 2 -p tcp -e 40 -c 0 -i 0 -a 0 -x {0.0 5.0 -1 ------- null}
r -t 1.202064 -s 0 -d 2 -p tcp -e 40 -c 0 -i 0 -a 0 -x {0.0 5.0 0 ------- null}
+ -t 1.202064 -s 2 -d 3 -p tcp -e 40 -c 0 -i 0 -a 0 -x {0.0 5.0 0 ------- null}
- -t 1.202064 -s 2 -d 3 -p tcp -e 40 -c 0 -i 0 -a 0 -x {0.0 5.0 0 ------- null}
h -t 1.202064 -s 2 -d 3 -p tcp -e 40 -c 0 -i 0 -a 0 -x {0.0 5.0 -1 ------- null}
r -t 1.21227733333333 -s 2 -d 3 -p tcp -e 40 -c 0 -i 0 -a 0 -x {0.0 5.0 0 ------- null}
+ -t 1.21227733333333 -s 3 -d 5 -p tcp -e 40 -c 0 -i 0 -a 0 -x {0.0 5.0 0 ------- null}
- -t 1.21227733333333 -s 3 -d 5 -p tcp -e 40 -c 0 -i 0 -a 0 -x {0.0 5.0 0 ------- null}
h -t 1.21227733333333 -s 3 -d 5 -p tcp -e 40 -c 0 -i 0 -a 0 -x {0.0 5.0 -1 ------- null}
r -t 1.21434133333333 -s 3 -d 5 -p tcp -e 40 -c 0 -i 0 -a 0 -x {0.0 5.0 0 ------- null}
+ -t 1.21434133333333 -s 5 -d 3 -p ack -e 40 -c 0 -i 1 -a 0 -x {5.0 0.0 0 ------- null}
- -t 1.21434133333333 -s 5 -d 3 -p ack -e 40 -c 0 -i 1 -a 0 -x {5.0 0.0 0 ------- null}
h -t 1.21434133333333 -s 5 -d 3 -p ack -e 40 -c 0 -i 1 -a 0 -x {5.0 0.0 -1 ------- null}
r -t 1.21640533333333 -s 5 -d 3 -p ack -e 40 -c 0 -i 1 -a 0 -x {5.0 0.0 0 ------- null}
+ -t 1.21640533333333 -s 3 -d 2 -p ack -e 40 -c 0 -i 1 -a 0 -x {5.0 0.0 0 ------- null}
- -t 1.21640533333333 -s 3 -d 2 -p ack -e 40 -c 0 -i 1 -a 0 -x {5.0 0.0 0 ------- null}
h -t 1.21640533333333 -s 3 -d 2 -p ack -e 40 -c 0 -i 1 -a 0 -x {5.0 0.0 -1 ------- null}
r -t 1.22661866666667 -s 3 -d 2 -p ack -e 40 -c 0 -i 1 -a 0 -x {5.0 0.0 0 ------- null}
+ -t 1.22661866666667 -s 2 -d 0 -p ack -e 40 -c 0 -i 1 -a 0 -x {5.0 0.0 0 ------- null}
- -t 1.22661866666667 -s 2 -d 0 -p ack -e 40 -c 0 -i 1 -a 0 -x {5.0 0.0 0 ------- null}
h -t 1.22661866666667 -s 2 -d 0 -p ack -e 40 -c 0 -i 1 -a 0 -x {5.0 0.0 -1 ------- null}
r -t 1.22868266666667 -s 2 -d 0 -p ack -e 40 -c 0 -i 1 -a 0 -x {5.0 0.0 0 ------- null}
+ -t 1.22868266666667 -s 0 -d 2 -p tcp -e 1040 -c 0 -i 2 -a 0 -x {0.0 5.0 1 ------- null}
- -t 1.22868266666667 -s 0 -d 2 -p tcp -e 1040 -c 0 -i 2 -a 0 -x {0.0 5.0 1 ------- null}
h -t 1.22868266666667 -s 0 -d 2 -p tcp -e 1040 -c 0 -i 2 -a 0 -x {0.0 5.0 -1 ------- null}
+ -t 1.22868266666667 -s 0 -d 2 -p tcp -e 1040 -c 0 -i 3 -a 0 -x {0.0 5.0 2 ------- null}
- -t 1.23034666666667 -s 0 -d 2 -p tcp -e 1040 -c 0 -i 3 -a 0 -x {0.0 5.0 2 ------- null}
h -t 1.23034666666667 -s 0 -d 2 -p tcp -e 1040 -c 0 -i 3 -a 0 -x {0.0 5.0 -1 ------- null}
r -t 1.23234666666667 -s 0 -d 2 -p tcp -e 1040 -c 0 -i 2 -a 0 -x {0.0 5.0 1 ------- null}
+ -t 1.23234666666667 -s 2 -d 3 -p tcp -e 1040 -c 0 -i 2 -a 0 -x {0.0 5.0 1 ------- null}
- -t 1.23234666666667 -s 2 -d 3 -p tcp -e 1040 -c 0 -i 2 -a 0 -x {0.0 5.0 1 ------- null}
h -t 1.23234666666667 -s 2 -d 3 -p tcp -e 1040 -c 0 -i 2 -a 0 -x {0.0 5.0 -1 ------- null}
r -t 1.23401066666667 -s 0 -d 2 -p tcp -e 1040 -c 0 -i 3 -a 0 -x {0.0 5.0 2 ------- null}
+ -t 1.23401066666667 -s 2 -d 3 -p tcp -e 1040 -c 0 -i 3 -a 0 -x {0.0 5.0 2 ------- null}
- -t 1.23789333333333 -s 2 -d 3 -p tcp -e 1040 -c 0 -i 3 -a 0 -x {0.0 5.0 2 ------- null}
h -t 1.23789333333333 -s 2 -d 3 -p tcp -e 1040 -c 0 -i 3 -a 0 -x {0.0 5.0 -1 ------- null}
r -t 1.24789333333333 -s 2 -d 3 -p tcp -e 1040 -c 0 -i 2 -a 0 -x {0.0 5.0 1 ------- null}
+ -t 1.24789333333333 -s 3 -d 5 -p tcp -e 1040 -c 0 -i 2 -a 0 -x {0.0 5.0 1 ------- null}
- -t 1.24789333333333 -s 3 -d 5 -p tcp -e 1040 -c 0 -i 2 -a 0 -x {0.0 5.0 1 ------- null}
h -t 1.24789333333333 -s 3 -d 5 -p tcp -e 1040 -c 0 -i 2 -a 0 -x {0.0 5.0 -1 ------- null}
r -t 1.25155733333333 -s 3 -d 5 -p tcp -e 1040 -c 0 -i 2 -a 0 -x {0.0 5.0 1 ------- null}
+ -t 1.25155733333333 -s 5 -d 3 -p ack -e 40 -c 0 -i 4 -a 0 -x {5.0 0.0 1 ------- null}
- -t 1.25155733333333 -s 5 -d 3 -p ack -e 40 -c 0 -i 4 -a 0 -x {5.0 0.0 1 ------- null}
h -t 1.25155733333333 -s 5 -d 3 -p ack -e 40 -c 0 -i 4 -a 0 -x {5.0 0.0 -1 ------- null}
r -t 1.25344 -s 2 -d 3 -p tcp -e 1040 -c 0 -i 3 -a 0 -x {0.0 5.0 2 ------- null}
+ -t 1.25344 -s 3 -d 5 -p tcp -e 1040 -c 0 -i 3 -a 0 -x {0.0 5.0 2 ------- null}
- -t 1.25344 -s 3 -d 5 -p tcp -e 1040 -c 0 -i 3 -a 0 -x {0.0 5.0 2 ------- null}
h -t 1.25344 -s 3 -d 5 -p tcp -e 1040 -c 0 -i 3 -a 0 -x {0.0 5.0 -1 ------- null}
r -t 1.25362133333333 -s 5 -d 3 -p ack -e 40 -c 0 -i 4 -a 0 -x {5.0 0.0 1 ------- null}
+ -t 1.25362133333333 -s 3 -d 2 -p ack -e 40 -c 0 -i 4 -a 0 -x {5.0 0.0 1 ------- null}
- -t 1.25362133333333 -s 3 -d 2 -p ack -e 40 -c 0 -i 4 -a 0 -x {5.0 0.0 1 ------- null}
h -t 1.25362133333333 -s 3 -d 2 -p ack -e 40 -c 0 -i 4 -a 0 -x {5.0 0.0 -1 ------- null}
r -t 1.257104 -s 3 -d 5 -p tcp -e 1040 -c 0 -i 3 -a 0 -x {0.0 5.0 2 ------- null}
+ -t 1.257104 -s 5 -d 3 -p ack -e 40 -c 0 -i 5 -a 0 -x {5.0 0.0 2 ------- null}
- -t 1.257104 -s 5 -d 3 -p ack -e 40 -c 0 -i 5 -a 0 -x {5.0 0.0 2 ------- null}
h -t 1.257104 -s 5 -d 3 -p ack -e 40 -c 0 -i 5 -a 0 -x {5.0 0.0 -1 ------- null}
r -t 1.259168 -s 5 -d 3 -p ack -e 40 -c 0 -i 5 -a 0 -x {5.0 0.0 2 ------- null}
+ -t 1.259168 -s 3 -d 2 -p ack -e 40 -c 0 -i 5 -a 0 -x {5.0 0.0 2 ------- null}
- -t 1.259168 -s 3 -d 2 -p ack -e 40 -c 0 -i 5 -a 0 -x {5.0 0.0 2 ------- null}
h -t 1.259168 -s 3 -d 2 -p ack -e 40 -c 0 -i 5 -a 0 -x {5.0 0.0 -1 ------- null}
r -t 1.26383466666667 -s 3 -d 2 -p ack -e 40 -c 0 -i 4 -a 0 -x {5.0 0.0 1 ------- null}
+ -t 1.26383466666667 -s 2 -d 0 -p ack -e 40 -c 0 -i 4 -a 0 -x {5.0 0.0 1 ------- null}
- -t 1.26383466666667 -s 2 -d 0 -p ack -e 40 -c 0 -i 4 -a 0 -x {5.0 0.0 1 ------- null}
h -t 1.26383466666667 -s 2 -d 0 -p ack -e 40 -c 0 -i 4 -a 0 -x {5.0 0.0 -1 ------- null}
r -t 1.26589866666667 -s 2 -d 0 -p ack -e 40 -c 0 -i 4 -a 0 -x {5.0 0.0 1 ------- null}
+ -t 1.26589866666667 -s 0 -d 2 -p tcp -e 1040 -c 0 -i 6 -a 0 -x {0.0 5.0 3 ------- null}
- -t 1.26589866666667 -s 0 -d 2 -p tcp -e 1040 -c 0 -i 6 -a 0 -x {0.0 5.0 3 ------- null}
h -t 1.26589866666667 -s 0 -d 2 -p tcp -e 1040 -c 0 -i 6 -a 0 -x {0.0 5.0 -1 ------- null}
+ -t 1.26589866666667 -s 0 -d 2 -p tcp -e 1040 -c 0 -i 7 -a 0 -x {0.0 5.0 4 ------- null}
- -t 1.26756266666667 -s 0 -d 2 -p tcp -e 1040 -c 0 -i 7 -a 0 -x {0.0 5.0 4 ------- null}
h -t 1.26756266666667 -s 0 -d 2 -p tcp -e 1040 -c 0 -i 7 -a 0 -x {0.0 5.0 -1 ------- null}
r -t 1.26938133333333 -s 3 -d 2 -p ack -e 40 -c 0 -i 5 -a 0 -x {5.0 0.0 2 ------- null}
+ -t 1.26938133333333 -s 2 -d 0 -p ack -e 40 -c 0 -i 5 -a 0 -x {5.0 0.0 2 ------- null}
- -t 1.26938133333333 -s 2 -d 0 -p ack -e 40 -c 0 -i 5 -a 0 -x {5.0 0.0 2 ------- null}
h -t 1.26938133333333 -s 2 -d 0 -p ack -e 40 -c 0 -i 5 -a 0 -x {5.0 0.0 -1 ------- null}
r -t 1.26956266666667 -s 0 -d 2 -p tcp -e 1040 -c 0 -i 6 -a 0 -x {0.0 5.0 3 ------- null}
+ -t 1.26956266666667 -s 2 -d 3 -p tcp -e 1040 -c 0 -i 6 -a 0 -x {0.0 5.0 3 ------- null}
- -t 1.26956266666667 -s 2 -d 3 -p tcp -e 1040 -c 0 -i 6 -a 0 -x {0.0 5.0 3 ------- null}
h -t 1.26956266666667 -s 2 -d 3 -p tcp -e 1040 -c 0 -i 6 -a 0 -x {0.0 5.0 -1 ------- null}
r -t 1.27122666666667 -s 0 -d 2 -p tcp -e 1040 -c 0 -i 7 -a 0 -x {0.0 5.0 4 ------- null}
+ -t 1.27122666666667 -s 2 -d 3 -p tcp -e 1040 -c 0 -i 7 -a 0 -x {0.0 5.0 4 ------- null}
r -t 1.27144533333333 -s 2 -d 0 -p ack -e 40 -c 0 -i 5 -a 0 -x {5.0 0.0 2 ------- null}
+ -t 1.27144533333333 -s 0 -d 2 -p tcp -e 1040 -c 0 -i 8 -a 0 -x {0.0 5.0 5 ------- null}
- -t 1.27144533333333 -s 0 -d 2 -p tcp -e 1040 -c 0 -i 8 -a 0 -x {0.0 5.0 5 ------- null}
h -t 1.27144533333333 -s 0 -d 2 -p tcp -e 1040 -c 0 -i 8 -a 0 -x {0.0 5.0 -1 ------- null}
+ -t 1.27144533333333 -s 0 -d 2 -p tcp -e 1040 -c 0 -i 9 -a 0 -x {0.0 5.0 6 ------- null}
- -t 1.27310933333333 -s 0 -d 2 -p tcp -e 1040 -c 0 -i 9 -a 0 -x {0.0 5.0 6 ------- null}
h -t 1.27310933333333 -s 0 -d 2 -p tcp -e 1040 -c 0 -i 9 -a 0 -x {0.0 5.0 -1 ------- null}
- -t 1.27510933333333 -s 2 -d 3 -p tcp -e 1040 -c 0 -i 7 -a 0 -x {0.0 5.0 4 ------- null}
h -t 1.27510933333333 -s 2 -d 3 -p tcp -e 1040 -c 0 -i 7 -a 0 -x {0.0 5.0 -1 ------- null}
r -t 1.27510933333333 -s 0 -d 2 -p tcp -e 1040 -c 0 -i 8 -a 0 -x {0.0 5.0 5 ------- null}
+ -t 1.27510933333333 -s 2 -d 3 -p tcp -e 1040 -c 0 -i 8 -a 0 -x {0.0 5.0 5 ------- null}
r -t 1.27677333333333 -s 0 -d 2 -p tcp -e 1040 -c 0 -i 9 -a 0 -x {0.0 5.0 6 ------- null}
+ -t 1.27677333333333 -s 2 -d 3 -p tcp -e 1040 -c 0 -i 9 -a 0 -x {0.0 5.0 6 ------- null}
- -t 1.280656 -s 2 -d 3 -p tcp -e 1040 -c 0 -i 8 -a 0 -x {0.0 5.0 5 ------- null}
h -t 1.280656 -s 2 -d 3 -p tcp -e 1040 -c 0 -i 8 -a 0 -x {0.0 5.0 -1 ------- null}
r -t 1.28510933333333 -s 2 -d 3 -p tcp -e 1040 -c 0 -i 6 -a 0 -x {0.0 5.0 3 ------- null}
+ -t 1.28510933333333 -s 3 -d 5 -p tcp -e 1040 -c 0 -i 6 -a 0 -x {0.0 5.0 3 ------- null}
- -t 1.28510933333333 -s 3 -d 5 -p tcp -e 1040 -c 0 -i 6 -a 0 -x {0.0 5.0 3 ------- null}
h -t 1.28510933333333 -s 3 -d 5 -p tcp -e 1040 -c 0 -i 6 -a 0 -x {0.0 5.0 -1 ------- null}
- -t 1.28620266666667 -s 2 -d 3 -p tcp -e 1040 -c 0 -i 9 -a 0 -x {0.0 5.0 6 ------- null}
h -t 1.28620266666667 -s 2 -d 3 -p tcp -e 1040 -c 0 -i 9 -a 0 -x {0.0 5.0 -1 ------- null}
r -t 1.28877333333333 -s 3 -d 5 -p tcp -e 1040 -c 0 -i 6 -a 0 -x {0.0 5.0 3 ------- null}
+ -t 1.28877333333333 -s 5 -d 3 -p ack -e 40 -c 0 -i 10 -a 0 -x {5.0 0.0 3 ------- null}
- -t 1.28877333333333 -s 5 -d 3 -p ack -e 40 -c 0 -i 10 -a 0 -x {5.0 0.0 3 ------- null}
h -t 1.28877333333333 -s 5 -d 3 -p ack -e 40 -c 0 -i 10 -a 0 -x {5.0 0.0 -1 ------- null}
r -t 1.290656 -s 2 -d 3 -p tcp -e 1040 -c 0 -i 7 -a 0 -x {0.0 5.0 4 ------- null}
+ -t 1.290656 -s 3 -d 5 -p tcp -e 1040 -c 0 -i 7 -a 0 -x {0.0 5.0 4 ------- null}
- -t 1.290656 -s 3 -d 5 -p tcp -e 1040 -c 0 -i 7 -a 0 -x {0.0 5.0 4 ------- null}
h -t 1.290656 -s 3 -d 5 -p tcp -e 1040 -c 0 -i 7 -a 0 -x {0.0 5.0 -1 ------- null}
r -t 1.29083733333333 -s 5 -d 3 -p ack -e 40 -c 0 -i 10 -a 0 -x {5.0 0.0 3 ------- null}
+ -t 1.29083733333333 -s 3 -d 2 -p ack -e 40 -c 0 -i 10 -a 0 -x {5.0 0.0 3 ------- null}
- -t 1.29083733333333 -s 3 -d 2 -p ack -e 40 -c 0 -i 10 -a 0 -x {5.0 0.0 3 ------- null}
h -t 1.29083733333333 -s 3 -d 2 -p ack -e 40 -c 0 -i 10 -a 0 -x {5.0 0.0 -1 ------- null}
r -t 1.29432 -s 3 -d 5 -p tcp -e 1040 -c 0 -i 7 -a 0 -x {0.0 5.0 4 ------- null}
+ -t 1.29432 -s 5 -d 3 -p ack -e 40 -c 0 -i 11 -a 0 -x {5.0 0.0 4 ------- null}
- -t 1.29432 -s 5 -d 3 -p ack -e 40 -c 0 -i 11 -a 0 -x {5.0 0.0 4 ------- null}
h -t 1.29432 -s 5 -d 3 -p ack -e 40 -c 0 -i 11 -a 0 -x {5.0 0.0 -1 ------- null}
r -t 1.29620266666667 -s 2 -d 3 -p tcp -e 1040 -c 0 -i 8 -a 0 -x {0.0 5.0 5 ------- null}
+ -t 1.29620266666667 -s 3 -d 5 -p tcp -e 1040 -c 0 -i 8 -a 0 -x {0.0 5.0 5 ------- null}
- -t 1.29620266666667 -s 3 -d 5 -p tcp -e 1040 -c 0 -i 8 -a 0 -x {0.0 5.0 5 ------- null}
h -t 1.29620266666667 -s 3 -d 5 -p tcp -e 1040 -c 0 -i 8 -a 0 -x {0.0 5.0 -1 ------- null}
r -t 1.296384 -s 5 -d 3 -p ack -e 40 -c 0 -i 11 -a 0 -x {5.0 0.0 4 ------- null}
+ -t 1.296384 -s 3 -d 2 -p ack -e 40 -c 0 -i 11 -a 0 -x {5.0 0.0 4 ------- null}
- -t 1.296384 -s 3 -d 2 -p ack -e 40 -c 0 -i 11 -a 0 -x {5.0 0.0 4 ------- null}
h -t 1.296384 -s 3 -d 2 -p ack -e 40 -c 0 -i 11 -a 0 -x {5.0 0.0 -1 ------- null}
r -t 1.29986666666667 -s 3 -d 5 -p tcp -e 1040 -c 0 -i 8 -a 0 -x {0.0 5.0 5 ------- null}
+ -t 1.29986666666667 -s 5 -d 3 -p ack -e 40 -c 0 -i 12 -a 0 -x {5.0 0.0 5 ------- null}
- -t 1.29986666666667 -s 5 -d 3 -p ack -e 40 -c 0 -i 12 -a 0 -x {5.0 0.0 5 ------- null}
h -t 1.29986666666667 -s 5 -d 3 -p ack -e 40 -c 0 -i 12 -a 0 -x {5.0 0.0 -1 ------- null}
r -t 1.30105066666667 -s 3 -d 2 -p ack -e 40 -c 0 -i 10 -a 0 -x {5.0 0.0 3 ------- null}
+ -t 1.30105066666667 -s 2 -d 0 -p ack -e 40 -c 0 -i 10 -a 0 -x {5.0 0.0 3 ------- null}
- -t 1.30105066666667 -s 2 -d 0 -p ack -e 40 -c 0 -i 10 -a 0 -x {5.0 0.0 3 ------- null}
h -t 1.30105066666667 -s 2 -d 0 -p ack -e 40 -c 0 -i 10 -a 0 -x {5.0 0.0 -1 ------- null}
r -t 1.30174933333333 -s 2 -d 3 -p tcp -e 1040 -c 0 -i 9 -a 0 -x {0.0 5.0 6 ------- null}
+ -t 1.30174933333333 -s 3 -d 5 -p tcp -e 1040 -c 0 -i 9 -a 0 -x {0.0 5.0 6 ------- null}
- -t 1.30174933333333 -s 3 -d 5 -p tcp -e 1040 -c 0 -i 9 -a 0 -x {0.0 5.0 6 ------- null}
h -t 1.30174933333333 -s 3 -d 5 -p tcp -e 1040 -c 0 -i 9 -a 0 -x {0.0 5.0 -1 ------- null}
r -t 1.30193066666667 -s 5 -d 3 -p ack -e 40 -c 0 -i 12 -a 0 -x {5.0 0.0 5 ------- null}
+ -t 1.30193066666667 -s 3 -d 2 -p ack -e 40 -c 0 -i 12 -a 0 -x {5.0 0.0 5 ------- null}
- -t 1.30193066666667 -s 3 -d 2 -p ack -e 40 -c 0 -i 12 -a 0 -x {5.0 0.0 5 ------- null}
h -t 1.30193066666667 -s 3 -d 2 -p ack -e 40 -c 0 -i 12 -a 0 -x {5.0 0.0 -1 ------- null}
r -t 1.30311466666667 -s 2 -d 0 -p ack -e 40 -c 0 -i 10 -a 0 -x {5.0 0.0 3 ------- null}
+ -t 1.30311466666667 -s 0 -d 2 -p tcp -e 1040 -c 0 -i 13 -a 0 -x {0.0 5.0 7 ------- null}
- -t 1.30311466666667 -s 0 -d 2 -p tcp -e 1040 -c 0 -i 13 -a 0 -x {0.0 5.0 7 ------- null}
h -t 1.30311466666667 -s 0 -d 2 -p tcp -e 1040 -c 0 -i 13 -a 0 -x {0.0 5.0 -1 ------- null}
+ -t 1.30311466666667 -s 0 -d 2 -p tcp -e 1040 -c 0 -i 14 -a 0 -x {0.0 5.0 8 ------- null}
- -t 1.30477866666667 -s 0 -d 2 -p tcp -e 1040 -c 0 -i 14 -a 0 -x {0.0 5.0 8 ------- null}
h -t 1.30477866666667 -s 0 -d 2 -p tcp -e 1040 -c 0 -i 14 -a 0 -x {0.0 5.0 -1 ------- null}
r -t 1.30541333333333 -s 3 -d 5 -p tcp -e 1040 -c 0 -i 9 -a 0 -x {0.0 5.0 6 ------- null}
+ -t 1.30541333333333 -s 5 -d 3 -p ack -e 40 -c 0 -i 15 -a 0 -x {5.0 0.0 6 ------- null}
- -t 1.30541333333333 -s 5 -d 3 -p ack -e 40 -c 0 -i 15 -a 0 -x {5.0 0.0 6 ------- null}
h -t 1.30541333333333 -s 5 -d 3 -p ack -e 40 -c 0 -i 15 -a 0 -x {5.0 0.0 -1 ------- null}
r -t 1.30659733333333 -s 3 -d 2 -p ack -e 40 -c 0 -i 11 -a 0 -x {5.0 0.0 4 ------- null}
+ -t 1.30659733333333 -s 2 -d 0 -p ack -e 40 -c 0 -i 11 -a 0 -x {5.0 0.0 4 ------- null}
- -t 1.30659733333333 -s 2 -d 0 -p ack -e 40 -c 0 -i 11 -a 0 -x {5.0 0.0 4 ------- null}
h -t 1.30659733333333 -s 2 -d 0 -p ack -e 40 -c 0 -i 11 -a 0 -x {5.0 0.0 -1 ------- null}
r -t 1.30677866666667 -s 0 -d 2 -p tcp -e 1040 -c 0 -i 13 -a 0 -x {0.0 5.0 7 ------- null}
+ -t 1.30677866666667 -s 2 -d 3 -p tcp -e 1040 -c 0 -i 13 -a 0 -x {0.0 5.0 7 ------- null}
- -t 1.30677866666667 -s 2 -d 3 -p tcp -e 1040 -c 0 -i 13 -a 0 -x {0.0 5.0 7 ------- null}
h -t 1.30677866666667 -s 2 -d 3 -p tcp -e 1040 -c 0 -i 13 -a 0 -x {0.0 5.0 -1 ------- null}
r -t 1.30747733333333 -s 5 -d 3 -p ack -e 40 -c 0 -i 15 -a 0 -x {5.0 0.0 6 ------- null}
+ -t 1.30747733333333 -s 3 -d 2 -p ack -e 40 -c 0 -i 15 -a 0 -x {5.0 0.0 6 ------- null}
- -t 1.30747733333333 -s 3 -d 2 -p ack -e 40 -c 0 -i 15 -a 0 -x {5.0 0.0 6 ------- null}
h -t 1.30747733333333 -s 3 -d 2 -p ack -e 40 -c 0 -i 15 -a 0 -x {5.0 0.0 -1 ------- null}
r -t 1.30844266666667 -s 0 -d 2 -p tcp -e 1040 -c 0 -i 14 -a 0 -x {0.0 5.0 8 ------- null}
+ -t 1.30844266666667 -s 2 -d 3 -p tcp -e 1040 -c 0 -i 14 -a 0 -x {0.0 5.0 8 ------- null}
r -t 1.30866133333333 -s 2 -d 0 -p ack -e 40 -c 0 -i 11 -a 0 -x {5.0 0.0 4 ------- null}
+ -t 1.30866133333333 -s 0 -d 2 -p tcp -e 1040 -c 0 -i 16 -a 0 -x {0.0 5.0 9 ------- null}
- -t 1.30866133333333 -s 0 -d 2 -p tcp -e 1040 -c 0 -i 16 -a 0 -x {0.0 5.0 9 ------- null}
h -t 1.30866133333333 -s 0 -d 2 -p tcp -e 1040 -c 0 -i 16 -a 0 -x {0.0 5.0 -1 ------- null}
+ -t 1.30866133333333 -s 0 -d 2 -p tcp -e 1040 -c 0 -i 17 -a 0 -x {0.0 5.0 10 ------- null}
- -t 1.31032533333333 -s 0 -d 2 -p tcp -e 1040 -c 0 -i 17 -a 0 -x {0.0 5.0 10 ------- null}
h -t 1.31032533333333 -s 0 -d 2 -p tcp -e 1040 -c 0 -i 17 -a 0 -x {0.0 5.0 -1 ------- null}
r -t 1.312144 -s 3 -d 2 -p ack -e 40 -c 0 -i 12 -a 0 -x {5.0 0.0 5 ------- null}
+ -t 1.312144 -s 2 -d 0 -p ack -e 40 -c 0 -i 12 -a 0 -x {5.0 0.0 5 ------- null}
- -t 1.312144 -s 2 -d 0 -p ack -e 40 -c 0 -i 12 -a 0 -x {5.0 0.0 5 ------- null}
h -t 1.312144 -s 2 -d 0 -p ack -e 40 -c 0 -i 12 -a 0 -x {5.0 0.0 -1 ------- null}
- -t 1.31232533333333 -s 2 -d 3 -p tcp -e 1040 -c 0 -i 14 -a 0 -x {0.0 5.0 8 ------- null}
h -t 1.31232533333333 -s 2 -d 3 -p tcp -e 1040 -c 0 -i 14 -a 0 -x {0.0 5.0 -1 ------- null}
r -t 1.31232533333333 -s 0 -d 2 -p tcp -e 1040 -c 0 -i 16 -a 0 -x {0.0 5.0 9 ------- null}
+ -t 1.31232533333333 -s 2 -d 3 -p tcp -e 1040 -c 0 -i 16 -a 0 -x {0.0 5.0 9 ------- null}
r -t 1.31398933333333 -s 0 -d 2 -p tcp -e 1040 -c 0 -i 17 -a 0 -x {0.0 5.0 10 ------- null}
+ -t 1.31398933333333 -s 2 -d 3 -p tcp -e 1040 -c 0 -i 17 -a 0 -x {0.0 5.0 10 ------- null}
r -t 1.314208 -s 2 -d 0 -p ack -e 40 -c 0 -i 12 -a 0 -x {5.0 0.0 5 ------- null}
+ -t 1.314208 -s 0 -d 2 -p tcp -e 1040 -c 0 -i 18 -a 0 -x {0.0 5.0 11 ------- null}
- -t 1.314208 -s 0 -d 2 -p tcp -e 1040 -c 0 -i 18 -a 0 -x {0.0 5.0 11 ------- null}
h -t 1.314208 -s 0 -d 2 -p tcp -e 1040 -c 0 -i 18 -a 0 -x {0.0 5.0 -1 ------- null}
+ -t 1.314208 -s 0 -d 2 -p tcp -e 1040 -c 0 -i 19 -a 0 -x {0.0 5.0 12 ------- null}
- -t 1.315872 -s 0 -d 2 -p tcp -e 1040 -c 0 -i 19 -a 0 -x {0.0 5.0 12 ------- null}
h -t 1.315872 -s 0 -d 2 -p tcp -e 1040 -c 0 -i 19 -a 0 -x {0.0 5.0 -1 ------- null}
r -t 1.31769066666667 -s 3 -d 2 -p ack -e 40 -c 0 -i 15 -a 0 -x {5.0 0.0 6 ------- null}
+ -t 1.31769066666667 -s 2 -d 0 -p ack -e 40 -c 0 -i 15 -a 0 -x {5.0 0.0 6 ------- null}
- -t 1.31769066666667 -s 2 -d 0 -p ack -e 40 -c 0 -i 15 -a 0 -x {5.0 0.0 6 ------- null}
h -t 1.31769066666667 -s 2 -d 0 -p ack -e 40 -c 0 -i 15 -a 0 -x {5.0 0.0 -1 ------- null}
- -t 1.317872 -s 2 -d 3 -p tcp -e 1040 -c 0 -i 16 -a 0 -x {0.0 5.0 9 ------- null}
h -t 1.317872 -s 2 -d 3 -p tcp -e 1040 -c 0 -i 16 -a 0 -x {0.0 5.0 -1 ------- null}
r -t 1.317872 -s 0 -d 2 -p tcp -e 1040 -c 0 -i 18 -a 0 -x {0.0 5.0 11 ------- null}
+ -t 1.317872 -s 2 -d 3 -p tcp -e 1040 -c 0 -i 18 -a 0 -x {0.0 5.0 11 ------- null}
r -t 1.319536 -s 0 -d 2 -p tcp -e 1040 -c 0 -i 19 -a 0 -x {0.0 5.0 12 ------- null}
+ -t 1.319536 -s 2 -d 3 -p tcp -e 1040 -c 0 -i 19 -a 0 -x {0.0 5.0 12 ------- null}
r -t 1.31975466666667 -s 2 -d 0 -p ack -e 40 -c 0 -i 15 -a 0 -x {5.0 0.0 6 ------- null}
+ -t 1.31975466666667 -s 0 -d 2 -p tcp -e 1040 -c 0 -i 20 -a 0 -x {0.0 5.0 13 ------- null}
- -t 1.31975466666667 -s 0 -d 2 -p tcp -e 1040 -c 0 -i 20 -a 0 -x {0.0 5.0 13 ------- null}
h -t 1.31975466666667 -s 0 -d 2 -p tcp -e 1040 -c 0 -i 20 -a 0 -x {0.0 5.0 -1 ------- null}
+ -t 1.31975466666667 -s 0 -d 2 -p tcp -e 1040 -c 0 -i 21 -a 0 -x {0.0 5.0 14 ------- null}
- -t 1.32141866666667 -s 0 -d 2 -p tcp -e 1040 -c 0 -i 21 -a 0 -x {0.0 5.0 14 ------- null}
h -t 1.32141866666667 -s 0 -d 2 -p tcp -e 1040 -c 0 -i 21 -a 0 -x {0.0 5.0 -1 ------- null}
r -t 1.32232533333333 -s 2 -d 3 -p tcp -e 1040 -c 0 -i 13 -a 0 -x {0.0 5.0 7 ------- null}
+ -t 1.32232533333333 -s 3 -d 5 -p tcp -e 1040 -c 0 -i 13 -a 0 -x {0.0 5.0 7 ------- null}
- -t 1.32232533333333 -s 3 -d 5 -p tcp -e 1040 -c 0 -i 13 -a 0 -x {0.0 5.0 7 ------- null}
h -t 1.32232533333333 -s 3 -d 5 -p tcp -e 1040 -c 0 -i 13 -a 0 -x {0.0 5.0 -1 ------- null}
- -t 1.32341866666667 -s 2 -d 3 -p tcp -e 1040 -c 0 -i 17 -a 0 -x {0.0 5.0 10 ------- null}
h -t 1.32341866666667 -s 2 -d 3 -p tcp -e 1040 -c 0 -i 17 -a 0 -x {0.0 5.0 -1 ------- null}
r -t 1.32341866666667 -s 0 -d 2 -p tcp -e 1040 -c 0 -i 20 -a 0 -x {0.0 5.0 13 ------- null}
+ -t 1.32341866666667 -s 2 -d 3 -p tcp -e 1040 -c 0 -i 20 -a 0 -x {0.0 5.0 13 ------- null}
r -t 1.32508266666667 -s 0 -d 2 -p tcp -e 1040 -c 0 -i 21 -a 0 -x {0.0 5.0 14 ------- null}
+ -t 1.32508266666667 -s 2 -d 3 -p tcp -e 1040 -c 0 -i 21 -a 0 -x {0.0 5.0 14 ------- null}
r -t 1.32598933333333 -s 3 -d 5 -p tcp -e 1040 -c 0 -i 13 -a 0 -x {0.0 5.0 7 ------- null}
+ -t 1.32598933333333 -s 5 -d 3 -p ack -e 40 -c 0 -i 22 -a 0 -x {5.0 0.0 7 ------- null}
- -t 1.32598933333333 -s 5 -d 3 -p ack -e 40 -c 0 -i 22 -a 0 -x {5.0 0.0 7 ------- null}
h -t 1.32598933333333 -s 5 -d 3 -p ack -e 40 -c 0 -i 22 -a 0 -x {5.0 0.0 -1 ------- null}
r -t 1.327872 -s 2 -d 3 -p tcp -e 1040 -c 0 -i 14 -a 0 -x {0.0 5.0 8 ------- null}
+ -t 1.327872 -s 3 -d 5 -p tcp -e 1040 -c 0 -i 14 -a 0 -x {0.0 5.0 8 ------- null}
- -t 1.327872 -s 3 -d 5 -p tcp -e 1040 -c 0 -i 14 -a 0 -x {0.0 5.0 8 ------- null}
h -t 1.327872 -s 3 -d 5 -p tcp -e 1040 -c 0 -i 14 -a 0 -x {0.0 5.0 -1 ------- null}
r -t 1.32805333333333 -s 5 -d 3 -p ack -e 40 -c 0 -i 22 -a 0 -x {5.0 0.0 7 ------- null}
+ -t 1.32805333333333 -s 3 -d 2 -p ack -e 40 -c 0 -i 22 -a 0 -x {5.0 0.0 7 ------- null}
- -t 1.32805333333333 -s 3 -d 2 -p ack -e 40 -c 0 -i 22 -a 0 -x {5.0 0.0 7 ------- null}
h -t 1.32805333333333 -s 3 -d 2 -p ack -e 40 -c 0 -i 22 -a 0 -x {5.0 0.0 -1 ------- null}
- -t 1.32896533333333 -s 2 -d 3 -p tcp -e 1040 -c 0 -i 18 -a 0 -x {0.0 5.0 11 ------- null}
h -t 1.32896533333333 -s 2 -d 3 -p tcp -e 1040 -c 0 -i 18 -a 0 -x {0.0 5.0 -1 ------- null}
r -t 1.331536 -s 3 -d 5 -p tcp -e 1040 -c 0 -i 14 -a 0 -x {0.0 5.0 8 ------- null}
+ -t 1.331536 -s 5 -d 3 -p ack -e 40 -c 0 -i 23 -a 0 -x {5.0 0.0 8 ------- null}
- -t 1.331536 -s 5 -d 3 -p ack -e 40 -c 0 -i 23 -a 0 -x {5.0 0.0 8 ------- null}
h -t 1.331536 -s 5 -d 3 -p ack -e 40 -c 0 -i 23 -a 0 -x {5.0 0.0 -1 ------- null}
r -t 1.33341866666667 -s 2 -d 3 -p tcp -e 1040 -c 0 -i 16 -a 0 -x {0.0 5.0 9 ------- null}
+ -t 1.33341866666667 -s 3 -d 5 -p tcp -e 1040 -c 0 -i 16 -a 0 -x {0.0 5.0 9 ------- null}
- -t 1.33341866666667 -s 3 -d 5 -p tcp -e 1040 -c 0 -i 16 -a 0 -x {0.0 5.0 9 ------- null}
h -t 1.33341866666667 -s 3 -d 5 -p tcp -e 1040 -c 0 -i 16 -a 0 -x {0.0 5.0 -1 ------- null}
r -t 1.3336 -s 5 -d 3 -p ack -e 40 -c 0 -i 23 -a 0 -x {5.0 0.0 8 ------- null}
+ -t 1.3336 -s 3 -d 2 -p ack -e 40 -c 0 -i 23 -a 0 -x {5.0 0.0 8 ------- null}
- -t 1.3336 -s 3 -d 2 -p ack -e 40 -c 0 -i 23 -a 0 -x {5.0 0.0 8 ------- null}
h -t 1.3336 -s 3 -d 2 -p ack -e 40 -c 0 -i 23 -a 0 -x {5.0 0.0 -1 ------- null}
- -t 1.334512 -s 2 -d 3 -p tcp -e 1040 -c 0 -i 19 -a 0 -x {0.0 5.0 12 ------- null}
h -t 1.334512 -s 2 -d 3 -p tcp -e 1040 -c 0 -i 19 -a 0 -x {0.0 5.0 -1 ------- null}
r -t 1.33708266666667 -s 3 -d 5 -p tcp -e 1040 -c 0 -i 16 -a 0 -x {0.0 5.0 9 ------- null}
+ -t 1.33708266666667 -s 5 -d 3 -p ack -e 40 -c 0 -i 24 -a 0 -x {5.0 0.0 9 ------- null}
- -t 1.33708266666667 -s 5 -d 3 -p ack -e 40 -c 0 -i 24 -a 0 -x {5.0 0.0 9 ------- null}
h -t 1.33708266666667 -s 5 -d 3 -p ack -e 40 -c 0 -i 24 -a 0 -x {5.0 0.0 -1 ------- null}
r -t 1.33826666666667 -s 3 -d 2 -p ack -e 40 -c 0 -i 22 -a 0 -x {5.0 0.0 7 ------- null}
+ -t 1.33826666666667 -s 2 -d 0 -p ack -e 40 -c 0 -i 22 -a 0 -x {5.0 0.0 7 ------- null}
- -t 1.33826666666667 -s 2 -d 0 -p ack -e 40 -c 0 -i 22 -a 0 -x {5.0 0.0 7 ------- null}
h -t 1.33826666666667 -s 2 -d 0 -p ack -e 40 -c 0 -i 22 -a 0 -x {5.0 0.0 -1 ------- null}
r -t 1.33896533333333 -s 2 -d 3 -p tcp -e 1040 -c 0 -i 17 -a 0 -x {0.0 5.0 10 ------- null}
+ -t 1.33896533333333 -s 3 -d 5 -p tcp -e 1040 -c 0 -i 17 -a 0 -x {0.0 5.0 10 ------- null}
- -t 1.33896533333333 -s 3 -d 5 -p tcp -e 1040 -c 0 -i 17 -a 0 -x {0.0 5.0 10 ------- null}
h -t 1.33896533333333 -s 3 -d 5 -p tcp -e 1040 -c 0 -i 17 -a 0 -x {0.0 5.0 -1 ------- null}
r -t 1.33914666666667 -s 5 -d 3 -p ack -e 40 -c 0 -i 24 -a 0 -x {5.0 0.0 9 ------- null}
+ -t 1.33914666666667 -s 3 -d 2 -p ack -e 40 -c 0 -i 24 -a 0 -x {5.0 0.0 9 ------- null}
- -t 1.33914666666667 -s 3 -d 2 -p ack -e 40 -c 0 -i 24 -a 0 -x {5.0 0.0 9 ------- null}
h -t 1.33914666666667 -s 3 -d 2 -p ack -e 40 -c 0 -i 24 -a 0 -x {5.0 0.0 -1 ------- null}
- -t 1.34005866666667 -s 2 -d 3 -p tcp -e 1040 -c 0 -i 20 -a 0 -x {0.0 5.0 13 ------- null}
h -t 1.34005866666667 -s 2 -d 3 -p tcp -e 1040 -c 0 -i 20 -a 0 -x {0.0 5.0 -1 ------- null}
r -t 1.34033066666667 -s 2 -d 0 -p ack -e 40 -c 0 -i 22 -a 0 -x {5.0 0.0 7 ------- null}
+ -t 1.34033066666667 -s 0 -d 2 -p tcp -e 1040 -c 0 -i 25 -a 0 -x {0.0 5.0 15 ------- null}
- -t 1.34033066666667 -s 0 -d 2 -p tcp -e 1040 -c 0 -i 25 -a 0 -x {0.0 5.0 15 ------- null}
h -t 1.34033066666667 -s 0 -d 2 -p tcp -e 1040 -c 0 -i 25 -a 0 -x {0.0 5.0 -1 ------- null}
+ -t 1.34033066666667 -s 0 -d 2 -p tcp -e 1040 -c 0 -i 26 -a 0 -x {0.0 5.0 16 ------- null}
- -t 1.34199466666667 -s 0 -d 2 -p tcp -e 1040 -c 0 -i 26 -a 0 -x {0.0 5.0 16 ------- null}
h -t 1.34199466666667 -s 0 -d 2 -p tcp -e 1040 -c 0 -i 26 -a 0 -x {0.0 5.0 -1 ------- null}
r -t 1.34262933333333 -s 3 -d 5 -p tcp -e 1040 -c 0 -i 17 -a 0 -x {0.0 5.0 10 ------- null}
+ -t 1.34262933333333 -s 5 -d 3 -p ack -e 40 -c 0 -i 27 -a 0 -x {5.0 0.0 10 ------- null}
- -t 1.34262933333333 -s 5 -d 3 -p ack -e 40 -c 0 -i 27 -a 0 -x {5.0 0.0 10 ------- null}
h -t 1.34262933333333 -s 5 -d 3 -p ack -e 40 -c 0 -i 27 -a 0 -x {5.0 0.0 -1 ------- null}
r -t 1.34381333333333 -s 3 -d 2 -p ack -e 40 -c 0 -i 23 -a 0 -x {5.0 0.0 8 ------- null}
+ -t 1.34381333333333 -s 2 -d 0 -p ack -e 40 -c 0 -i 23 -a 0 -x {5.0 0.0 8 ------- null}
- -t 1.34381333333333 -s 2 -d 0 -p ack -e 40 -c 0 -i 23 -a 0 -x {5.0 0.0 8 ------- null}
h -t 1.34381333333333 -s 2 -d 0 -p ack -e 40 -c 0 -i 23 -a 0 -x {5.0 0.0 -1 ------- null}
r -t 1.34399466666667 -s 0 -d 2 -p tcp -e 1040 -c 0 -i 25 -a 0 -x {0.0 5.0 15 ------- null}
+ -t 1.34399466666667 -s 2 -d 3 -p tcp -e 1040 -c 0 -i 25 -a 0 -x {0.0 5.0 15 ------- null}
r -t 1.344512 -s 2 -d 3 -p tcp -e 1040 -c 0 -i 18 -a 0 -x {0.0 5.0 11 ------- null}
+ -t 1.344512 -s 3 -d 5 -p tcp -e 1040 -c 0 -i 18 -a 0 -x {0.0 5.0 11 ------- null}
- -t 1.344512 -s 3 -d 5 -p tcp -e 1040 -c 0 -i 18 -a 0 -x {0.0 5.0 11 ------- null}
h -t 1.344512 -s 3 -d 5 -p tcp -e 1040 -c 0 -i 18 -a 0 -x {0.0 5.0 -1 ------- null}
r -t 1.34469333333333 -s 5 -d 3 -p ack -e 40 -c 0 -i 27 -a 0 -x {5.0 0.0 10 ------- null}
+ -t 1.34469333333333 -s 3 -d 2 -p ack -e 40 -c 0 -i 27 -a 0 -x {5.0 0.0 10 ------- null}
- -t 1.34469333333333 -s 3 -d 2 -p ack -e 40 -c 0 -i 27 -a 0 -x {5.0 0.0 10 ------- null}
h -t 1.34469333333333 -s 3 -d 2 -p ack -e 40 -c 0 -i 27 -a 0 -x {5.0 0.0 -1 ------- null}
- -t 1.34560533333333 -s 2 -d 3 -p tcp -e 1040 -c 0 -i 21 -a 0 -x {0.0 5.0 14 ------- null}
h -t 1.34560533333333 -s 2 -d 3 -p tcp -e 1040 -c 0 -i 21 -a 0 -x {0.0 5.0 -1 ------- null}
r -t 1.34565866666667 -s 0 -d 2 -p tcp -e 1040 -c 0 -i 26 -a 0 -x {0.0 5.0 16 ------- null}
+ -t 1.34565866666667 -s 2 -d 3 -p tcp -e 1040 -c 0 -i 26 -a 0 -x {0.0 5.0 16 ------- null}
r -t 1.34587733333333 -s 2 -d 0 -p ack -e 40 -c 0 -i 23 -a 0 -x {5.0 0.0 8 ------- null}
+ -t 1.34587733333333 -s 0 -d 2 -p tcp -e 1040 -c 0 -i 28 -a 0 -x {0.0 5.0 17 ------- null}
- -t 1.34587733333333 -s 0 -d 2 -p tcp -e 1040 -c 0 -i 28 -a 0 -x {0.0 5.0 17 ------- null}
h -t 1.34587733333333 -s 0 -d 2 -p tcp -e 1040 -c 0 -i 28 -a 0 -x {0.0 5.0 -1 ------- null}
+ -t 1.34587733333333 -s 0 -d 2 -p tcp -e 1040 -c 0 -i 29 -a 0 -x {0.0 5.0 18 ------- null}
- -t 1.34754133333333 -s 0 -d 2 -p tcp -e 1040 -c 0 -i 29 -a 0 -x {0.0 5.0 18 ------- null}
h -t 1.34754133333333 -s 0 -d 2 -p tcp -e 1040 -c 0 -i 29 -a 0 -x {0.0 5.0 -1 ------- null}
r -t 1.348176 -s 3 -d 5 -p tcp -e 1040 -c 0 -i 18 -a 0 -x {0.0 5.0 11 ------- null}
+ -t 1.348176 -s 5 -d 3 -p ack -e 40 -c 0 -i 30 -a 0 -x {5.0 0.0 11 ------- null}
- -t 1.348176 -s 5 -d 3 -p ack -e 40 -c 0 -i 30 -a 0 -x {5.0 0.0 11 ------- null}
h -t 1.348176 -s 5 -d 3 -p ack -e 40 -c 0 -i 30 -a 0 -x {5.0 0.0 -1 ------- null}
r -t 1.34936 -s 3 -d 2 -p ack -e 40 -c 0 -i 24 -a 0 -x {5.0 0.0 9 ------- null}
+ -t 1.34936 -s 2 -d 0 -p ack -e 40 -c 0 -i 24 -a 0 -x {5.0 0.0 9 ------- null}
- -t 1.34936 -s 2 -d 0 -p ack -e 40 -c 0 -i 24 -a 0 -x {5.0 0.0 9 ------- null}
h -t 1.34936 -s 2 -d 0 -p ack -e 40 -c 0 -i 24 -a 0 -x {5.0 0.0 -1 ------- null}
r -t 1.34954133333333 -s 0 -d 2 -p tcp -e 1040 -c 0 -i 28 -a 0 -x {0.0 5.0 17 ------- null}
+ -t 1.34954133333333 -s 2 -d 3 -p tcp -e 1040 -c 0 -i 28 -a 0 -x {0.0 5.0 17 ------- null}
r -t 1.35005866666667 -s 2 -d 3 -p tcp -e 1040 -c 0 -i 19 -a 0 -x {0.0 5.0 12 ------- null}
+ -t 1.35005866666667 -s 3 -d 5 -p tcp -e 1040 -c 0 -i 19 -a 0 -x {0.0 5.0 12 ------- null}
- -t 1.35005866666667 -s 3 -d 5 -p tcp -e 1040 -c 0 -i 19 -a 0 -x {0.0 5.0 12 ------- null}
h -t 1.35005866666667 -s 3 -d 5 -p tcp -e 1040 -c 0 -i 19 -a 0 -x {0.0 5.0 -1 ------- null}
r -t 1.35024 -s 5 -d 3 -p ack -e 40 -c 0 -i 30 -a 0 -x {5.0 0.0 11 ------- null}
+ -t 1.35024 -s 3 -d 2 -p ack -e 40 -c 0 -i 30 -a 0 -x {5.0 0.0 11 ------- null}
- -t 1.35024 -s 3 -d 2 -p ack -e 40 -c 0 -i 30 -a 0 -x {5.0 0.0 11 ------- null}
h -t 1.35024 -s 3 -d 2 -p ack -e 40 -c 0 -i 30 -a 0 -x {5.0 0.0 -1 ------- null}
- -t 1.351152 -s 2 -d 3 -p tcp -e 1040 -c 0 -i 25 -a 0 -x {0.0 5.0 15 ------- null}
h -t 1.351152 -s 2 -d 3 -p tcp -e 1040 -c 0 -i 25 -a 0 -x {0.0 5.0 -1 ------- null}
r -t 1.35120533333333 -s 0 -d 2 -p tcp -e 1040 -c 0 -i 29 -a 0 -x {0.0 5.0 18 ------- null}
+ -t 1.35120533333333 -s 2 -d 3 -p tcp -e 1040 -c 0 -i 29 -a 0 -x {0.0 5.0 18 ------- null}
r -t 1.351424 -s 2 -d 0 -p ack -e 40 -c 0 -i 24 -a 0 -x {5.0 0.0 9 ------- null}
+ -t 1.351424 -s 0 -d 2 -p tcp -e 1040 -c 0 -i 31 -a 0 -x {0.0 5.0 19 ------- null}
- -t 1.351424 -s 0 -d 2 -p tcp -e 1040 -c 0 -i 31 -a 0 -x {0.0 5.0 19 ------- null}
h -t 1.351424 -s 0 -d 2 -p tcp -e 1040 -c 0 -i 31 -a 0 -x {0.0 5.0 -1 ------- null}
+ -t 1.351424 -s 0 -d 2 -p tcp -e 1040 -c 0 -i 32 -a 0 -x {0.0 5.0 20 ------- null}
- -t 1.353088 -s 0 -d 2 -p tcp -e 1040 -c 0 -i 32 -a 0 -x {0.0 5.0 20 ------- null}
h -t 1.353088 -s 0 -d 2 -p tcp -e 1040 -c 0 -i 32 -a 0 -x {0.0 5.0 -1 ------- null}
r -t 1.35372266666667 -s 3 -d 5 -p tcp -e 1040 -c 0 -i 19 -a 0 -x {0.0 5.0 12 ------- null}
+ -t 1.35372266666667 -s 5 -d 3 -p ack -e 40 -c 0 -i 33 -a 0 -x {5.0 0.0 12 ------- null}